# vtk DataFile Version 3.0
vtk output
ASCII
DATASET POLYDATA
POINTS  64  float
0.0000000  0.0500000  0.0000000
0.0123338  -0.0257925  0.0000000
-0.0050136  0.0289633  0.0000000
-0.0452107  0.0037871  0.0000000
-0.0258511  0.0018757  0.0000000
-0.0299338  -0.0305092  0.0000000
-0.0010027  0.0457927  0.0000000
0.0408443  0.0165721  0.0000000
0.0115564  0.0004108  0.0000000
0.0394525  -0.0124345  0.0000000
-0.0005014  0.0478963  0.0000000
-0.0216003  0.0444594  0.0000000
0.0104610  -0.0227794  0.0000000
0.0018921  -0.0495410  0.0000000
-0.0150602  0.0090114  0.0000000
-0.0104088  -0.0067664  0.0000000
0.0106801  -0.0181414  0.0000000
0.0323737  -0.0338711  0.0000000
-0.0070229  0.0249729  0.0000000
-0.0304415  0.0265601  0.0000000
-0.0284946  -0.0286980  0.0000000
-0.0263187  -0.0418534  0.0000000
-0.0294452  -0.0087417  0.0000000
-0.0440185  -0.0148005  0.0000000
0.0106436  -0.0340630  0.0000000
0.0190764  -0.0452627  0.0000000
0.0105487  -0.0209242  0.0000000
-0.0079927  -0.0317658  0.0000000
0.0276251  -0.0034767  0.0000000
0.0389900  0.0024105  0.0000000
0.0052668  0.0079460  0.0000000
-0.0008272  0.0011078  0.0000000
0.0011546  0.0163529  0.0000000
0.0148390  0.0186285  0.0000000
0.0110306  -0.0107205  0.0000000
-0.0021371  -0.0142825  0.0000000
0.0104669  0.0409941  0.0000000
0.0223765  0.0428442  0.0000000
-0.0262717  0.0235066  0.0000000
-0.0437569  0.0188037  0.0000000
0.0292425  -0.0285059  0.0000000
0.0392129  -0.0259350  0.0000000
-0.0120606  -0.0048665  0.0000000
-0.0131739  -0.0205311  0.0000000
-0.0307922  -0.0192085  0.0000000
-0.0401220  -0.0267633  0.0000000
-0.0260305  -0.0311781  0.0000000
-0.0194967  -0.0313577  0.0000000
0.0116402  0.0160354  0.0000000
0.0254581  0.0118062  0.0000000
-0.0010821  -0.0314787  0.0000000
-0.0072562  -0.0430654  0.0000000
0.0307741  0.0305316  0.0000000
0.0350536  0.0334435  0.0000000
-0.0025463  0.0239191  0.0000000
0.0106352  0.0263337  0.0000000
-0.0228516  0.0222358  0.0000000
-0.0265506  0.0139146  0.0000000
-0.0191267  0.0437290  0.0000000
-0.0298767  0.0360280  0.0000000
0.0333322  -0.0098225  0.0000000
0.0346492  -0.0172274  0.0000000
-0.0134464  -0.0067539  0.0000000
-0.0203047  -0.0107883  0.0000000

LINES  63  189
2  0  10
2  10  58
2  58  59
2  58  11
2  10  6
2  6  36
2  36  37
2  36  52
2  52  7
2  52  53
2  6  2
2  2  18
2  18  56
2  56  57
2  56  38
2  38  39
2  38  19
2  18  14
2  14  42
2  42  62
2  62  63
2  62  43
2  42  15
2  14  4
2  4  22
2  22  23
2  22  44
2  44  20
2  20  46
2  46  47
2  46  21
2  20  5
2  44  45
2  4  3
2  2  54
2  54  32
2  32  30
2  30  8
2  8  34
2  34  35
2  34  16
2  16  40
2  40  41
2  40  17
2  16  26
2  26  12
2  12  24
2  24  25
2  24  13
2  12  1
2  26  50
2  50  27
2  50  51
2  8  28
2  28  60
2  60  61
2  60  9
2  28  29
2  30  31
2  32  48
2  48  33
2  48  49
2  54  55

CELL_DATA  63
scalars raio float
LOOKUP_TABLE default
0.9803789
0.3373978
0.3096620
0.2057875
0.9668733
0.4217339
0.2490965
0.3905126
0.3485763
0.2581289
0.9393515
0.7123061
0.4127229
0.2652190
0.3724058
0.3336508
0.2438753
0.6627514
0.4173023
0.3984021
0.2931687
0.3363120
0.2112956
0.6022481
0.5732068
0.3172276
0.5387954
0.4954733
0.4726485
0.3508358
0.3966495
0.2522336
0.3264103
0.3110708
0.7760928
0.7674369
0.7438943
0.7354952
0.6695847
0.2888985
0.6511553
0.4410572
0.3706805
0.3266902
0.5751846
0.4742889
0.4572238
0.3518107
0.3733478
0.2231166
0.4372578
0.3172925
0.3724309
0.4605166
0.4049197
0.3262269
0.3163925
0.3150599
0.2397848
0.3429443
0.2245154
0.3072909
0.2491551
