# vtk DataFile Version 3.0
vtk output
ASCII
DATASET POLYDATA
POINTS  32  float
0.0000000  0.0500000  0.0000000
0.0123338  -0.0257925  0.0000000
-0.0050136  0.0289633  0.0000000
-0.0452107  0.0037871  0.0000000
-0.0258511  0.0018757  0.0000000
-0.0299338  -0.0305092  0.0000000
-0.0010027  0.0457927  0.0000000
0.0408443  0.0165721  0.0000000
0.0115564  0.0004108  0.0000000
0.0394525  -0.0124345  0.0000000
-0.0005014  0.0478963  0.0000000
-0.0216003  0.0444594  0.0000000
0.0104610  -0.0227794  0.0000000
0.0018921  -0.0495410  0.0000000
-0.0150602  0.0090114  0.0000000
-0.0104088  -0.0067664  0.0000000
0.0106801  -0.0181414  0.0000000
0.0323737  -0.0338711  0.0000000
-0.0070229  0.0249729  0.0000000
-0.0304415  0.0265601  0.0000000
-0.0284946  -0.0286980  0.0000000
-0.0263187  -0.0418534  0.0000000
-0.0294452  -0.0087417  0.0000000
-0.0440185  -0.0148005  0.0000000
0.0106436  -0.0340630  0.0000000
0.0190764  -0.0452627  0.0000000
0.0105487  -0.0209242  0.0000000
-0.0079927  -0.0317658  0.0000000
0.0276251  -0.0034767  0.0000000
0.0389900  0.0024105  0.0000000
0.0052668  0.0079460  0.0000000
-0.0008272  0.0011078  0.0000000

LINES  31  93
2  0  10
2  10  11
2  10  6
2  6  7
2  6  2
2  2  18
2  18  19
2  18  14
2  14  15
2  14  4
2  4  22
2  22  23
2  22  20
2  20  21
2  20  5
2  4  3
2  2  30
2  30  8
2  8  16
2  16  17
2  16  26
2  26  12
2  12  24
2  24  25
2  24  13
2  12  1
2  26  27
2  8  28
2  28  9
2  28  29
2  30  31

CELL_DATA  31
scalars raio float
LOOKUP_TABLE default
0.8176184
0.2642944
0.8083074
0.3299719
0.7895455
0.5876169
0.2870517
0.5638339
0.2827650
0.5390552
0.5002602
0.3245082
0.4498316
0.4155112
0.2681673
0.3156297
0.6613686
0.6504893
0.5891717
0.3626518
0.5392635
0.4843581
0.4669308
0.3592797
0.3812740
0.2278534
0.3508518
0.4135572
0.3341872
0.3220703
0.2412578
