# vtk DataFile Version 3.0
vtk output
ASCII
DATASET POLYDATA
POINTS  80  float
0.0000000  0.0500000  0.0000000
0.0123338  -0.0257925  0.0000000
-0.0050136  0.0289633  0.0000000
-0.0452107  0.0037871  0.0000000
-0.0258511  0.0018757  0.0000000
-0.0299338  -0.0305092  0.0000000
-0.0010027  0.0457927  0.0000000
0.0408443  0.0165721  0.0000000
0.0115564  0.0004108  0.0000000
0.0394525  -0.0124345  0.0000000
-0.0005014  0.0478963  0.0000000
-0.0216003  0.0444594  0.0000000
0.0104610  -0.0227794  0.0000000
0.0018921  -0.0495410  0.0000000
-0.0150602  0.0090114  0.0000000
-0.0104088  -0.0067664  0.0000000
0.0106801  -0.0181414  0.0000000
0.0323737  -0.0338711  0.0000000
-0.0070229  0.0249729  0.0000000
-0.0304415  0.0265601  0.0000000
-0.0284946  -0.0286980  0.0000000
-0.0263187  -0.0418534  0.0000000
-0.0294452  -0.0087417  0.0000000
-0.0440185  -0.0148005  0.0000000
0.0106436  -0.0340630  0.0000000
0.0190764  -0.0452627  0.0000000
0.0105487  -0.0209242  0.0000000
-0.0079927  -0.0317658  0.0000000
0.0276251  -0.0034767  0.0000000
0.0389900  0.0024105  0.0000000
0.0052668  0.0079460  0.0000000
-0.0008272  0.0011078  0.0000000
0.0011546  0.0163529  0.0000000
0.0148390  0.0186285  0.0000000
0.0110306  -0.0107205  0.0000000
-0.0021371  -0.0142825  0.0000000
0.0104669  0.0409941  0.0000000
0.0223765  0.0428442  0.0000000
-0.0262717  0.0235066  0.0000000
-0.0437569  0.0188037  0.0000000
0.0292425  -0.0285059  0.0000000
0.0392129  -0.0259350  0.0000000
-0.0120606  -0.0048665  0.0000000
-0.0131739  -0.0205311  0.0000000
-0.0307922  -0.0192085  0.0000000
-0.0401220  -0.0267633  0.0000000
-0.0260305  -0.0311781  0.0000000
-0.0194967  -0.0313577  0.0000000
0.0116402  0.0160354  0.0000000
0.0254581  0.0118062  0.0000000
-0.0010821  -0.0314787  0.0000000
-0.0072562  -0.0430654  0.0000000
0.0307741  0.0305316  0.0000000
0.0350536  0.0334435  0.0000000
-0.0025463  0.0239191  0.0000000
0.0106352  0.0263337  0.0000000
-0.0228516  0.0222358  0.0000000
-0.0265506  0.0139146  0.0000000
-0.0191267  0.0437290  0.0000000
-0.0298767  0.0360280  0.0000000
0.0333322  -0.0098225  0.0000000
0.0346492  -0.0172274  0.0000000
-0.0134464  -0.0067539  0.0000000
-0.0203047  -0.0107883  0.0000000
0.0019771  0.0146715  0.0000000
-0.0053582  0.0083728  0.0000000
0.0111358  -0.0084942  0.0000000
0.0226280  -0.0138280  0.0000000
0.0383493  0.0013738  0.0000000
0.0480730  0.0056472  0.0000000
0.0323435  0.0244912  0.0000000
0.0306433  0.0186351  0.0000000
0.0201969  0.0328819  0.0000000
0.0222401  0.0220151  0.0000000
0.0028330  -0.0260347  0.0000000
-0.0042356  -0.0225207  0.0000000
-0.0042114  0.0323292  0.0000000
-0.0161247  0.0321827  0.0000000
-0.0395872  -0.0103925  0.0000000
-0.0465657  -0.0078416  0.0000000

LINES  79  237
2  0  10
2  10  58
2  58  59
2  58  11
2  10  6
2  6  36
2  36  37
2  36  72
2  72  52
2  52  70
2  70  71
2  70  7
2  52  53
2  72  73
2  6  76
2  76  2
2  2  18
2  18  56
2  56  57
2  56  38
2  38  39
2  38  19
2  18  14
2  14  42
2  42  62
2  62  63
2  62  43
2  42  15
2  14  4
2  4  22
2  22  78
2  78  79
2  78  23
2  22  44
2  44  20
2  20  46
2  46  47
2  46  21
2  20  5
2  44  45
2  4  3
2  2  54
2  54  32
2  32  64
2  64  65
2  64  30
2  30  8
2  8  66
2  66  67
2  66  34
2  34  35
2  34  16
2  16  40
2  40  41
2  40  17
2  16  26
2  26  12
2  12  24
2  24  25
2  24  13
2  12  1
2  26  74
2  74  50
2  50  27
2  50  51
2  74  75
2  8  28
2  28  60
2  60  61
2  60  9
2  28  68
2  68  29
2  68  69
2  30  31
2  32  48
2  48  33
2  48  49
2  54  55
2  76  77

CELL_DATA  79
scalars raio float
LOOKUP_TABLE default
1.0381103
0.3373895
0.3096544
0.2057824
1.0260925
0.4894974
0.2472069
0.4675079
0.4363566
0.4060618
0.2944877
0.3459816
0.2526723
0.2672834
0.9875286
0.9830055
0.7296347
0.4125764
0.2651249
0.3722736
0.3335324
0.2437888
0.6827089
0.4166789
0.3978070
0.2927307
0.3358097
0.2109799
0.6264642
0.5999580
0.3934228
0.3188590
0.3053694
0.5372379
0.4940411
0.4712822
0.3498217
0.3955029
0.2515045
0.3254667
0.3103976
0.8249653
0.8173248
0.7967003
0.2369567
0.7896510
0.7822257
0.7046271
0.2804089
0.6895022
0.2888146
0.6721793
0.4410299
0.3706576
0.3266700
0.6017761
0.4742723
0.4572078
0.3517984
0.3733347
0.2231088
0.4809411
0.4400419
0.3193128
0.3748023
0.2963842
0.5049888
0.3978348
0.3205190
0.3108566
0.4037415
0.2213037
0.3802361
0.2396285
0.3428439
0.2244497
0.3072009
0.2490929
0.2361688
