# vtk DataFile Version 3.0
vtk output
ASCII
DATASET POLYDATA
POINTS  16  float
0.0000000  0.0500000  0.0000000
0.0123338  -0.0257925  0.0000000
-0.0050136  0.0289633  0.0000000
-0.0452107  0.0037871  0.0000000
-0.0258511  0.0018757  0.0000000
-0.0299338  -0.0305092  0.0000000
-0.0010027  0.0457927  0.0000000
0.0408443  0.0165721  0.0000000
0.0115564  0.0004108  0.0000000
0.0394525  -0.0124345  0.0000000
-0.0005014  0.0478963  0.0000000
-0.0216003  0.0444594  0.0000000
0.0104610  -0.0227794  0.0000000
0.0018921  -0.0495410  0.0000000
-0.0150602  0.0090114  0.0000000
-0.0104088  -0.0067664  0.0000000

LINES  15  45
2  0  10
2  10  11
2  10  6
2  6  7
2  6  2
2  2  14
2  14  15
2  14  4
2  4  5
2  4  3
2  2  8
2  8  12
2  12  13
2  12  1
2  8  9

CELL_DATA  15
scalars raio float
LOOKUP_TABLE default
0.6667651
0.2644470
0.6526004
0.3303095
0.6230786
0.4812807
0.2892507
0.4435781
0.3732614
0.3279606
0.5071200
0.4454425
0.4178121
0.2490529
0.3476912
