# vtk DataFile Version 3.0
vtk output
ASCII
DATASET POLYDATA
POINTS  48  float
0.0000000  0.0500000  0.0000000
0.0123338  -0.0257925  0.0000000
-0.0050136  0.0289633  0.0000000
-0.0452107  0.0037871  0.0000000
-0.0258511  0.0018757  0.0000000
-0.0299338  -0.0305092  0.0000000
-0.0010027  0.0457927  0.0000000
0.0408443  0.0165721  0.0000000
0.0115564  0.0004108  0.0000000
0.0394525  -0.0124345  0.0000000
-0.0005014  0.0478963  0.0000000
-0.0216003  0.0444594  0.0000000
0.0104610  -0.0227794  0.0000000
0.0018921  -0.0495410  0.0000000
-0.0150602  0.0090114  0.0000000
-0.0104088  -0.0067664  0.0000000
0.0106801  -0.0181414  0.0000000
0.0323737  -0.0338711  0.0000000
-0.0070229  0.0249729  0.0000000
-0.0304415  0.0265601  0.0000000
-0.0284946  -0.0286980  0.0000000
-0.0263187  -0.0418534  0.0000000
-0.0294452  -0.0087417  0.0000000
-0.0440185  -0.0148005  0.0000000
0.0106436  -0.0340630  0.0000000
0.0190764  -0.0452627  0.0000000
0.0105487  -0.0209242  0.0000000
-0.0079927  -0.0317658  0.0000000
0.0276251  -0.0034767  0.0000000
0.0389900  0.0024105  0.0000000
0.0052668  0.0079460  0.0000000
-0.0008272  0.0011078  0.0000000
0.0011546  0.0163529  0.0000000
0.0148390  0.0186285  0.0000000
0.0110306  -0.0107205  0.0000000
-0.0021371  -0.0142825  0.0000000
0.0104669  0.0409941  0.0000000
0.0223765  0.0428442  0.0000000
-0.0262717  0.0235066  0.0000000
-0.0437569  0.0188037  0.0000000
0.0292425  -0.0285059  0.0000000
0.0392129  -0.0259350  0.0000000
-0.0120606  -0.0048665  0.0000000
-0.0131739  -0.0205311  0.0000000
-0.0307922  -0.0192085  0.0000000
-0.0401220  -0.0267633  0.0000000
-0.0260305  -0.0311781  0.0000000
-0.0194967  -0.0313577  0.0000000

LINES  47  141
2  0  10
2  10  11
2  10  6
2  6  36
2  36  37
2  36  7
2  6  2
2  2  18
2  18  38
2  38  39
2  38  19
2  18  14
2  14  42
2  42  43
2  42  15
2  14  4
2  4  22
2  22  23
2  22  44
2  44  20
2  20  46
2  46  47
2  46  21
2  20  5
2  44  45
2  4  3
2  2  32
2  32  30
2  30  8
2  8  34
2  34  35
2  34  16
2  16  40
2  40  41
2  40  17
2  16  26
2  26  12
2  12  24
2  24  25
2  24  13
2  12  1
2  26  27
2  8  28
2  28  9
2  28  29
2  30  31
2  32  33

CELL_DATA  47
scalars raio float
LOOKUP_TABLE default
0.9116975
0.2642596
0.9042360
0.3766937
0.2502284
0.3355601
0.8818975
0.6835367
0.3714612
0.3328045
0.2432568
0.6448173
0.3689808
0.3422258
0.2165479
0.6017290
0.5727127
0.3169542
0.5383310
0.4950462
0.4722411
0.3505334
0.3963076
0.2520162
0.3261289
0.3108027
0.7156516
0.7042643
0.6947925
0.6427847
0.2909594
0.6222645
0.4453153
0.3742592
0.3298441
0.5344287
0.4800156
0.4627445
0.3560586
0.3778557
0.2258106
0.3477062
0.4117771
0.3327487
0.3206840
0.2404677
0.2582294
