# vtk DataFile Version 3.0
vtk output
ASCII
DATASET POLYDATA
POINTS  96  float
0.0000000  0.0000000  0.0287941
-0.0003651  0.0180983  -0.0191554
-0.0065034  0.0001095  0.0078678
-0.0229133  -0.0151218  -0.0048432
-0.0005314  -0.0019044  0.0133952
0.0161787  -0.0139395  -0.0169247
-0.0001594  -0.0005713  0.0241744
0.0108221  0.0161363  0.0120311
0.0014696  -0.0066030  -0.0037803
-0.0077080  -0.0083694  -0.0219572
-0.0047118  -0.0004947  0.0095260
-0.0192646  0.0200716  0.0042305
0.0103083  0.0070338  0.0133019
0.0246752  0.0074955  -0.0007781
-0.0002710  -0.0009713  0.0209406
0.0172991  -0.0153499  0.0150216
0.0016497  -0.0071177  0.0041685
0.0089020  -0.0247103  0.0002435
-0.0002018  -0.0007233  0.0229456
-0.0199784  -0.0052792  0.0172966
0.0083012  -0.0060907  -0.0099539
0.0132603  0.0015152  -0.0145622
-0.0141005  -0.0036047  -0.0027394
-0.0195703  -0.0001002  -0.0191199
0.0154446  0.0102234  0.0036130
0.0163376  0.0180294  -0.0092327
-0.0058041  0.0129218  -0.0047241
-0.0110212  0.0253089  -0.0062196
0.0004719  -0.0043025  0.0091509
-0.0069985  -0.0218576  0.0088186
-0.0018013  -0.0032241  -0.0147553
-0.0023454  0.0069786  -0.0273965
-0.0050543  0.0094560  0.0006137
0.0012999  0.0201970  0.0019233
-0.0006034  -0.0005044  -0.0198218
0.0078046  -0.0034745  -0.0265650
-0.0114543  -0.0029922  0.0040477
-0.0228747  -0.0127599  0.0070993
0.0044199  0.0061952  0.0181740
0.0003987  0.0244020  0.0147086
0.0012021  -0.0060479  0.0060618
0.0233401  -0.0065459  0.0022289
0.0016496  -0.0149894  0.0012674
-0.0045669  -0.0201516  -0.0028283
0.0130296  -0.0093812  0.0015147
0.0181424  -0.0173834  -0.0057974
0.0041750  -0.0187787  -0.0008268
0.0057013  -0.0233082  -0.0117166
0.0122624  0.0082280  0.0069106
0.0084902  0.0057670  -0.0025916
-0.0105368  -0.0059688  0.0194826
-0.0145107  -0.0142506  0.0170338
-0.0000606  -0.0002171  0.0270386
-0.0101073  0.0106170  0.0242324
0.0167557  -0.0077487  0.0004770
0.0197603  -0.0031882  -0.0072749
0.0002486  0.0186562  -0.0000633
0.0048073  0.0269696  -0.0036749
-0.0144072  0.0090215  0.0029972
-0.0227066  0.0099873  -0.0077391
0.0208603  0.0081805  -0.0004526
0.0257770  0.0040096  -0.0119399
-0.0020350  0.0121348  -0.0010227
0.0062852  0.0108471  -0.0097689
-0.0054707  -0.0054597  0.0207061
-0.0060937  -0.0184431  0.0175854
-0.0021557  -0.0179017  -0.0023825
-0.0064379  -0.0199364  -0.0122235
0.0080379  -0.0044271  0.0184473
0.0143435  -0.0009891  0.0171092
-0.0174169  -0.0046017  0.0043269
-0.0229604  -0.0003680  0.0024293
0.0155033  0.0126601  -0.0057479
0.0146338  0.0100047  -0.0151378
-0.0004436  0.0175194  0.0144205
-0.0072051  0.0206293  0.0097191
-0.0017653  -0.0143089  0.0106587
0.0010196  -0.0199766  0.0149158
-0.0103783  0.0062420  0.0073095
-0.0154079  0.0183964  0.0137463
0.0110300  -0.0087945  -0.0149011
0.0112946  -0.0090195  -0.0216474
-0.0187038  -0.0129414  -0.0051902
-0.0179512  -0.0204970  -0.0084866
-0.0056792  -0.0001684  0.0086306
-0.0145351  0.0003538  0.0124056
0.0061864  0.0064468  0.0167124
0.0121272  0.0123334  0.0218104
0.0024072  -0.0161262  0.0006391
0.0010721  -0.0248188  0.0057580
0.0009883  -0.0043899  -0.0075001
0.0043398  0.0026887  -0.0091841
0.0136203  0.0125974  -0.0120447
0.0097720  0.0154709  -0.0175052
-0.0050798  0.0132148  -0.0115826
-0.0078794  0.0095312  -0.0168492

LINES  95  285
2  0  52
2  52  53
2  52  6
2  6  38
2  38  74
2  74  75
2  74  39
2  38  86
2  86  12
2  12  48
2  48  49
2  48  24
2  24  72
2  72  92
2  92  93
2  92  73
2  72  25
2  24  60
2  60  13
2  60  61
2  12  7
2  86  87
2  6  18
2  18  14
2  14  4
2  4  28
2  28  76
2  76  77
2  76  29
2  28  40
2  40  16
2  16  42
2  42  66
2  66  67
2  66  43
2  42  88
2  88  46
2  46  17
2  46  47
2  88  89
2  16  8
2  8  90
2  90  91
2  90  30
2  30  34
2  34  35
2  34  31
2  30  9
2  8  20
2  20  80
2  80  81
2  80  5
2  20  21
2  40  44
2  44  54
2  54  55
2  54  41
2  44  45
2  4  10
2  10  84
2  84  85
2  84  2
2  2  36
2  36  70
2  70  71
2  70  37
2  36  22
2  22  23
2  22  82
2  82  3
2  82  83
2  2  32
2  32  26
2  26  94
2  94  95
2  94  1
2  26  27
2  32  62
2  62  56
2  56  33
2  56  57
2  62  63
2  10  78
2  78  58
2  58  11
2  58  59
2  78  79
2  14  68
2  68  15
2  68  69
2  18  64
2  64  50
2  50  19
2  50  51
2  64  65

CELL_DATA  95
scalars raio float
LOOKUP_TABLE default
0.9349774
0.2226106
0.9307519
0.5497803
0.3115941
0.2544371
0.2397516
0.5141589
0.5012786
0.4868592
0.2385348
0.4669713
0.3996310
0.3626644
0.3064197
0.2665070
0.2526305
0.3362145
0.2215151
0.3005038
0.2193940
0.2151657
0.8618339
0.8433004
0.8305219
0.6690816
0.3061724
0.2365631
0.2491304
0.6469894
0.6014463
0.4306868
0.3129241
0.2790572
0.2073204
0.3665433
0.3254658
0.2433994
0.2716956
0.2453577
0.5163617
0.4314292
0.2275207
0.4092126
0.3680485
0.2934127
0.2908163
0.2652811
0.3856917
0.3416547
0.2673275
0.2749095
0.2595956
0.3762442
0.3275567
0.2698021
0.2493579
0.2626376
0.6489833
0.6015212
0.2140564
0.5923462
0.4522393
0.3111286
0.2358870
0.2570888
0.3965846
0.2824753
0.3415250
0.2511054
0.2884582
0.4867827
0.3961784
0.3471497
0.2621631
0.2877176
0.2730030
0.3760148
0.3274173
0.2120668
0.2945792
0.2623837
0.3818820
0.3391524
0.2652811
0.2729796
0.2555074
0.2994497
0.2564988
0.2152725
0.3431763
0.3005235
0.2391731
0.2378747
0.2367755
