# vtk DataFile Version 3.0
vtk output
ASCII
DATASET POLYDATA
POINTS  32  float
0.0000000  0.0000000  0.0287941
-0.0003651  0.0180983  -0.0191554
-0.0065034  0.0001095  0.0078678
-0.0229133  -0.0151218  -0.0048432
-0.0005314  -0.0019044  0.0133952
0.0161787  -0.0139395  -0.0169247
-0.0001594  -0.0005713  0.0241744
0.0108221  0.0161363  0.0120311
0.0014696  -0.0066030  -0.0037803
-0.0077080  -0.0083694  -0.0219572
-0.0047118  -0.0004947  0.0095260
-0.0192646  0.0200716  0.0042305
0.0103083  0.0070338  0.0133019
0.0246752  0.0074955  -0.0007781
-0.0002710  -0.0009713  0.0209406
0.0172991  -0.0153499  0.0150216
0.0016497  -0.0071177  0.0041685
0.0089020  -0.0247103  0.0002435
-0.0002018  -0.0007233  0.0229456
-0.0199784  -0.0052792  0.0172966
0.0083012  -0.0060907  -0.0099539
0.0132603  0.0015152  -0.0145622
-0.0141005  -0.0036047  -0.0027394
-0.0195703  -0.0001002  -0.0191199
0.0154446  0.0102234  0.0036130
0.0163376  0.0180294  -0.0092327
-0.0058041  0.0129218  -0.0047241
-0.0110212  0.0253089  -0.0062196
0.0004719  -0.0043025  0.0091509
-0.0069985  -0.0218576  0.0088186
-0.0018013  -0.0032241  -0.0147553
-0.0023454  0.0069786  -0.0273965

LINES  31  93
2  0  6
2  6  12
2  12  24
2  24  25
2  24  13
2  12  7
2  6  18
2  18  14
2  14  4
2  4  28
2  28  29
2  28  16
2  16  17
2  16  8
2  8  30
2  30  31
2  30  9
2  8  20
2  20  5
2  20  21
2  4  10
2  10  2
2  2  22
2  22  23
2  22  3
2  2  26
2  26  1
2  26  27
2  10  11
2  14  15
2  18  19

CELL_DATA  31
scalars raio float
LOOKUP_TABLE default
0.6870107
0.3820385
0.3535626
0.2924294
0.2677292
0.2261241
0.6451297
0.6330681
0.6191720
0.5000711
0.2536455
0.4772978
0.2632259
0.4489629
0.3644789
0.3037436
0.2732202
0.3478156
0.2845316
0.2670370
0.4824887
0.4509075
0.3542370
0.2874858
0.2745320
0.3614611
0.2933590
0.2801192
0.2743230
0.2537753
0.2454095
