# vtk DataFile Version 3.0
vtk output
ASCII
DATASET POLYDATA
POINTS  256  float
0.0000000  0.0000000  0.0287941
-0.0003651  0.0180983  -0.0191554
-0.0065034  0.0001095  0.0078678
-0.0229133  -0.0151218  -0.0048432
-0.0005314  -0.0019044  0.0133952
0.0161787  -0.0139395  -0.0169247
-0.0001594  -0.0005713  0.0241744
0.0108221  0.0161363  0.0120311
0.0014696  -0.0066030  -0.0037803
-0.0077080  -0.0083694  -0.0219572
-0.0047118  -0.0004947  0.0095260
-0.0192646  0.0200716  0.0042305
0.0103083  0.0070338  0.0133019
0.0246752  0.0074955  -0.0007781
-0.0002710  -0.0009713  0.0209406
0.0172991  -0.0153499  0.0150216
0.0016497  -0.0071177  0.0041685
0.0089020  -0.0247103  0.0002435
-0.0002018  -0.0007233  0.0229456
-0.0199784  -0.0052792  0.0172966
0.0083012  -0.0060907  -0.0099539
0.0132603  0.0015152  -0.0145622
-0.0141005  -0.0036047  -0.0027394
-0.0195703  -0.0001002  -0.0191199
0.0154446  0.0102234  0.0036130
0.0163376  0.0180294  -0.0092327
-0.0058041  0.0129218  -0.0047241
-0.0110212  0.0253089  -0.0062196
0.0004719  -0.0043025  0.0091509
-0.0069985  -0.0218576  0.0088186
-0.0018013  -0.0032241  -0.0147553
-0.0023454  0.0069786  -0.0273965
-0.0050543  0.0094560  0.0006137
0.0012999  0.0201970  0.0019233
-0.0006034  -0.0005044  -0.0198218
0.0078046  -0.0034745  -0.0265650
-0.0114543  -0.0029922  0.0040477
-0.0228747  -0.0127599  0.0070993
0.0044199  0.0061952  0.0181740
0.0003987  0.0244020  0.0147086
0.0012021  -0.0060479  0.0060618
0.0233401  -0.0065459  0.0022289
0.0016496  -0.0149894  0.0012674
-0.0045669  -0.0201516  -0.0028283
0.0130296  -0.0093812  0.0015147
0.0181424  -0.0173834  -0.0057974
0.0041750  -0.0187787  -0.0008268
0.0057013  -0.0233082  -0.0117166
0.0122624  0.0082280  0.0069106
0.0084902  0.0057670  -0.0025916
-0.0105368  -0.0059688  0.0194826
-0.0145107  -0.0142506  0.0170338
-0.0000606  -0.0002171  0.0270386
-0.0101073  0.0106170  0.0242324
0.0167557  -0.0077487  0.0004770
0.0197603  -0.0031882  -0.0072749
0.0002486  0.0186562  -0.0000633
0.0048073  0.0269696  -0.0036749
-0.0144072  0.0090215  0.0029972
-0.0227066  0.0099873  -0.0077391
0.0208603  0.0081805  -0.0004526
0.0257770  0.0040096  -0.0119399
-0.0020350  0.0121348  -0.0010227
0.0062852  0.0108471  -0.0097689
-0.0054707  -0.0054597  0.0207061
-0.0060937  -0.0184431  0.0175854
-0.0021557  -0.0179017  -0.0023825
-0.0064379  -0.0199364  -0.0122235
0.0080379  -0.0044271  0.0184473
0.0143435  -0.0009891  0.0171092
-0.0174169  -0.0046017  0.0043269
-0.0229604  -0.0003680  0.0024293
0.0155033  0.0126601  -0.0057479
0.0146338  0.0100047  -0.0151378
-0.0004436  0.0175194  0.0144205
-0.0072051  0.0206293  0.0097191
-0.0017653  -0.0143089  0.0106587
0.0010196  -0.0199766  0.0149158
-0.0103783  0.0062420  0.0073095
-0.0154079  0.0183964  0.0137463
0.0110300  -0.0087945  -0.0149011
0.0112946  -0.0090195  -0.0216474
-0.0187038  -0.0129414  -0.0051902
-0.0179512  -0.0204970  -0.0084866
-0.0056792  -0.0001684  0.0086306
-0.0145351  0.0003538  0.0124056
0.0061864  0.0064468  0.0167124
0.0121272  0.0123334  0.0218104
0.0024072  -0.0161262  0.0006391
0.0010721  -0.0248188  0.0057580
0.0009883  -0.0043899  -0.0075001
0.0043398  0.0026887  -0.0091841
0.0136203  0.0125974  -0.0120447
0.0097720  0.0154709  -0.0175052
-0.0050798  0.0132148  -0.0115826
-0.0078794  0.0095312  -0.0168492
-0.0133066  -0.0034210  -0.0007033
-0.0240145  0.0031791  -0.0048655
0.0090718  0.0068577  0.0143250
0.0231211  0.0004937  0.0147877
0.0018761  0.0155445  0.0145057
0.0067459  0.0252525  0.0077902
-0.0044323  0.0154400  -0.0145413
-0.0095475  0.0196911  -0.0181116
0.0116055  -0.0010534  -0.0153826
0.0144347  0.0032070  -0.0240757
-0.0064290  0.0179324  -0.0061231
-0.0002062  0.0248227  -0.0118327
0.0051855  -0.0041015  0.0200960
0.0084363  -0.0107408  0.0239906
-0.0055868  0.0130097  -0.0067817
-0.0172775  0.0099186  -0.0147642
-0.0046266  0.0147724  -0.0136537
-0.0059092  0.0134829  -0.0218847
-0.0054347  0.0130712  -0.0082220
-0.0021188  0.0065306  -0.0111680
0.0060793  -0.0198622  -0.0076567
0.0092320  -0.0174719  -0.0127740
-0.0182259  -0.0036261  -0.0090672
-0.0241457  -0.0066848  -0.0112982
0.0087439  -0.0090812  0.0037165
0.0119860  -0.0155719  0.0058742
-0.0000717  -0.0039469  -0.0102570
-0.0088371  -0.0128158  -0.0142668
-0.0031230  0.0208636  0.0109509
-0.0042174  0.0267973  0.0060589
-0.0199437  0.0089234  -0.0002907
-0.0270667  0.0078433  0.0004573
0.0074640  -0.0098608  0.0211956
0.0096077  -0.0170829  0.0195723
0.0023352  0.0133593  -0.0070417
0.0040641  0.0179795  -0.0125235
-0.0158935  0.0090798  0.0010175
-0.0143459  0.0096271  -0.0048029
0.0233991  0.0053295  -0.0103491
0.0214986  0.0051483  -0.0161050
0.0059600  -0.0200693  -0.0044567
0.0110763  -0.0246694  -0.0057771
-0.0040116  -0.0194493  -0.0023530
-0.0107620  -0.0246172  -0.0013126
-0.0136326  -0.0005443  0.0110780
-0.0214330  -0.0022571  0.0119786
0.0098866  0.0089716  0.0035863
0.0070108  0.0129932  0.0031828
-0.0023119  -0.0016181  -0.0174397
-0.0084431  0.0014480  -0.0212632
0.0075004  -0.0071879  0.0209818
0.0147225  -0.0084581  0.0230459
-0.0061245  -0.0043543  -0.0176854
-0.0121784  -0.0028502  -0.0190469
-0.0104452  0.0214291  -0.0067273
-0.0155242  0.0219904  -0.0081706
-0.0012824  -0.0034409  -0.0134058
0.0030950  -0.0120914  -0.0224948
0.0138360  0.0031825  0.0135586
0.0140445  -0.0008131  0.0111914
-0.0054890  0.0066520  0.0027899
-0.0021697  0.0052960  -0.0033735
-0.0214169  -0.0032967  0.0042602
-0.0269511  -0.0035700  0.0057153
-0.0081084  -0.0215041  -0.0035249
-0.0128569  -0.0223583  -0.0074300
-0.0010389  0.0174169  -0.0003298
-0.0045437  0.0223811  -0.0001167
-0.0198925  -0.0001066  -0.0141538
-0.0226417  0.0049139  -0.0157446
0.0122719  -0.0077290  -0.0181525
0.0152387  -0.0047963  -0.0207307
-0.0004533  -0.0016245  0.0156588
0.0065078  -0.0003365  0.0125793
-0.0025830  -0.0018377  0.0219680
-0.0070487  0.0004511  0.0202820
0.0114010  -0.0092672  0.0023514
0.0165359  -0.0085975  0.0061029
-0.0035696  -0.0201151  0.0101783
-0.0022286  -0.0264182  0.0110459
-0.0083131  0.0067835  0.0232617
-0.0151813  0.0093077  0.0175583
0.0008078  -0.0051054  0.0077299
0.0060646  -0.0087212  0.0106739
-0.0079012  -0.0106191  -0.0146684
-0.0130076  -0.0125724  -0.0191380
0.0137754  -0.0073899  0.0173949
0.0205909  -0.0056459  0.0176251
-0.0163671  0.0152197  0.0021377
-0.0158556  0.0185291  -0.0014819
-0.0111469  -0.0209737  -0.0068357
-0.0135333  -0.0186336  -0.0108863
-0.0097269  -0.0223327  -0.0020430
-0.0145517  -0.0214187  0.0027930
0.0034646  -0.0069579  0.0053582
0.0054957  -0.0005309  0.0020084
0.0009303  0.0231139  -0.0014209
-0.0012244  0.0274507  -0.0018162
-0.0189770  -0.0027273  -0.0121076
-0.0194240  -0.0060050  -0.0180679
0.0192356  0.0087934  0.0007671
0.0197728  0.0006643  -0.0008513
0.0165616  -0.0102888  0.0147182
0.0207058  -0.0109203  0.0098694
-0.0051563  0.0028523  0.0249920
-0.0111119  0.0002053  0.0240205
-0.0009162  -0.0010576  0.0226523
-0.0007815  -0.0090618  0.0265415
-0.0117548  -0.0093336  0.0166285
-0.0114807  -0.0108873  0.0113884
-0.0121582  -0.0031551  0.0022423
-0.0118836  -0.0112141  -0.0001677
-0.0023327  -0.0198803  -0.0067421
0.0008827  -0.0232240  -0.0095173
-0.0129260  -0.0105799  0.0136965
-0.0161727  -0.0124528  0.0106487
0.0027283  0.0118655  0.0147149
0.0016036  0.0126390  0.0068289
0.0015668  -0.0068809  0.0005121
-0.0060749  -0.0104111  -0.0016445
0.0045391  -0.0088157  0.0094280
0.0081263  -0.0142243  0.0104300
0.0125120  0.0032733  -0.0214880
0.0108013  0.0083128  -0.0247689
-0.0157781  0.0174847  0.0010253
-0.0131464  0.0250157  0.0011728
-0.0001515  0.0025424  -0.0220394
0.0059841  0.0068273  -0.0210535
0.0037743  0.0225774  0.0096060
0.0016985  0.0267934  0.0066005
0.0185974  0.0050418  -0.0018372
0.0164960  0.0023626  -0.0071468
-0.0008198  0.0002358  0.0266260
0.0043441  -0.0029014  0.0280380
0.0018973  -0.0015150  -0.0235427
0.0011208  -0.0015680  -0.0273307
-0.0173065  -0.0108650  -0.0038501
-0.0176008  -0.0161165  -0.0003450
-0.0161274  0.0118759  0.0033492
-0.0217943  0.0139149  0.0076605
0.0070479  -0.0216970  0.0006314
0.0128786  -0.0247951  0.0069132
0.0013620  0.0214707  -0.0004174
0.0061074  0.0250681  0.0015773
0.0144899  0.0096248  0.0046023
0.0189916  0.0189988  0.0066317
0.0003424  0.0120146  -0.0036180
0.0040207  0.0082150  -0.0045136
-0.0195443  0.0130087  0.0040962
-0.0234733  0.0141737  0.0023216
0.0026797  0.0036239  0.0204542
0.0070770  0.0086508  0.0256350
-0.0046044  -0.0043731  0.0210847
-0.0100114  -0.0047478  0.0248144
-0.0175002  0.0014674  -0.0026587
-0.0179375  0.0049179  -0.0032778
0.0031378  0.0127818  0.0112960
0.0078225  0.0169187  0.0055032
-0.0033064  -0.0188612  -0.0023642
-0.0033835  -0.0271078  0.0004483

LINES  255  765
2  0  52
2  52  228
2  228  229
2  228  200
2  200  201
2  200  176
2  176  177
2  176  53
2  52  6
2  6  246
2  246  247
2  246  38
2  38  212
2  212  252
2  252  253
2  252  213
2  212  100
2  100  224
2  224  225
2  224  101
2  100  74
2  74  124
2  124  125
2  124  75
2  74  39
2  38  86
2  86  98
2  98  154
2  154  155
2  154  99
2  98  12
2  12  48
2  48  142
2  142  143
2  142  49
2  48  240
2  240  24
2  24  72
2  72  92
2  92  93
2  92  73
2  72  25
2  24  196
2  196  60
2  60  13
2  60  134
2  134  61
2  134  135
2  196  226
2  226  197
2  226  227
2  240  241
2  12  7
2  86  87
2  6  18
2  18  14
2  14  168
2  168  169
2  168  4
2  4  28
2  28  76
2  76  77
2  76  174
2  174  29
2  174  175
2  28  178
2  178  40
2  40  16
2  16  42
2  42  66
2  66  208
2  208  209
2  208  67
2  66  254
2  254  138
2  138  43
2  138  160
2  160  188
2  188  189
2  188  139
2  160  186
2  186  161
2  186  187
2  254  255
2  42  88
2  88  46
2  46  236
2  236  237
2  236  17
2  46  136
2  136  116
2  116  47
2  116  117
2  136  137
2  88  89
2  16  214
2  214  8
2  8  90
2  90  91
2  90  122
2  122  152
2  152  153
2  152  30
2  30  144
2  144  145
2  144  34
2  34  230
2  230  231
2  230  35
2  34  222
2  222  31
2  222  223
2  30  148
2  148  9
2  148  149
2  122  180
2  180  123
2  180  181
2  8  20
2  20  80
2  80  166
2  166  167
2  166  81
2  80  5
2  20  104
2  104  21
2  104  218
2  218  105
2  218  219
2  214  215
2  40  190
2  190  120
2  120  172
2  172  173
2  172  44
2  44  54
2  54  55
2  54  41
2  44  45
2  120  121
2  190  191
2  178  216
2  216  179
2  216  217
2  4  10
2  10  84
2  84  140
2  140  141
2  140  85
2  84  2
2  2  36
2  36  70
2  70  158
2  158  159
2  158  71
2  70  37
2  36  206
2  206  96
2  96  22
2  22  118
2  118  119
2  118  194
2  194  164
2  164  23
2  164  165
2  194  195
2  22  232
2  232  82
2  82  3
2  82  83
2  232  233
2  96  250
2  250  97
2  250  251
2  206  207
2  2  156
2  156  32
2  32  26
2  26  110
2  110  111
2  110  114
2  114  94
2  94  95
2  94  112
2  112  102
2  102  1
2  102  103
2  112  113
2  114  115
2  26  106
2  106  150
2  150  151
2  150  27
2  106  107
2  32  62
2  62  162
2  162  163
2  162  56
2  56  33
2  56  238
2  238  192
2  192  57
2  192  193
2  238  239
2  62  242
2  242  130
2  130  63
2  130  131
2  242  243
2  156  157
2  10  78
2  78  58
2  58  234
2  234  244
2  244  245
2  244  235
2  234  184
2  184  220
2  220  221
2  220  185
2  184  11
2  58  132
2  132  126
2  126  59
2  126  127
2  132  133
2  78  79
2  14  108
2  108  68
2  68  182
2  182  183
2  182  198
2  198  15
2  198  199
2  68  69
2  108  146
2  146  128
2  128  109
2  128  129
2  146  147
2  18  202
2  202  170
2  170  248
2  248  249
2  248  64
2  64  50
2  50  19
2  50  204
2  204  51
2  204  210
2  210  205
2  210  211
2  64  65
2  170  171
2  202  203

CELL_DATA  255
scalars raio float
LOOKUP_TABLE default
1.2258493
0.3330143
0.1807156
0.3142358
0.1992536
0.2848730
0.2453187
0.2029123
1.2176018
0.6925433
0.1994282
0.6869864
0.4561421
0.2798426
0.2371759
0.2046677
0.4179196
0.3105695
0.2536420
0.2389166
0.3504403
0.3154519
0.2675815
0.2304076
0.2266717
0.6120845
0.6033043
0.2886334
0.2062160
0.2481273
0.5804262
0.5701281
0.2872841
0.2173757
0.2377491
0.5446958
0.5282596
0.3923823
0.3560862
0.3008618
0.2616730
0.2480482
0.4431090
0.3809262
0.2103991
0.3582017
0.2593695
0.3054982
0.3165791
0.2412644
0.2605346
0.2421137
0.2170447
0.2134692
1.1378058
1.1156218
1.0930277
0.1939547
1.0909882
0.8675366
0.3463758
0.2287682
0.3092814
0.2304102
0.2588912
0.8487262
0.8406816
0.7997762
0.5896101
0.4872215
0.3112658
0.2395385
0.2541340
0.4405460
0.4137335
0.1454073
0.4076579
0.3188271
0.2795778
0.2193656
0.3281551
0.2309099
0.2844924
0.2448577
0.4469975
0.4239595
0.3065033
0.2681120
0.2119491
0.3619262
0.3208993
0.2484448
0.2606583
0.2430845
0.2357944
0.6743054
0.6670788
0.5748238
0.2209322
0.5637323
0.5253800
0.2646634
0.5019639
0.4547058
0.2450565
0.4296219
0.3345094
0.2449442
0.2832877
0.3472354
0.2744117
0.2767800
0.3190105
0.2516023
0.2547754
0.3243838
0.2194042
0.2867229
0.4746150
0.3696733
0.3218550
0.2629282
0.2475201
0.2580213
0.3834781
0.2113477
0.3607600
0.2609230
0.3078951
0.2136492
0.4354657
0.4196989
0.3987727
0.2183730
0.3756267
0.3270191
0.2693593
0.2489487
0.2622066
0.2190876
0.2052661
0.2582339
0.1706474
0.2305275
0.8642932
0.7983621
0.2778940
0.2526371
0.1747419
0.7869773
0.5854638
0.3468860
0.2968332
0.2471440
0.2227907
0.2497961
0.5416790
0.5295143
0.4954223
0.4128131
0.2429734
0.3825981
0.3391490
0.2630955
0.2750065
0.2571059
0.3714448
0.3325764
0.2445260
0.2809000
0.2436446
0.2995177
0.2564472
0.2154772
0.2187625
0.6594080
0.6525302
0.5409657
0.4723877
0.2726953
0.4399156
0.4150569
0.2442133
0.3847103
0.3346534
0.2615998
0.2695116
0.2689721
0.2388849
0.3753850
0.3220693
0.2646772
0.2458852
0.2691108
0.4926034
0.4225460
0.2319289
0.3978379
0.1969002
0.3810636
0.3356274
0.2727682
0.2596858
0.2597585
0.3532773
0.3219962
0.2453575
0.2650229
0.2203965
0.2070679
0.5152221
0.4946672
0.4209002
0.2987317
0.2381423
0.2360555
0.3631877
0.3219174
0.2846929
0.2174794
0.2441066
0.3595403
0.3278368
0.2634563
0.2568689
0.2240208
0.2505313
0.4356204
0.3724978
0.3492559
0.2295429
0.3124656
0.2408748
0.2547456
0.2086510
0.3140697
0.2736862
0.1900620
0.2388984
0.2188335
0.4388011
0.4247887
0.4141359
0.1943834
0.3993387
0.3698097
0.2346423
0.3351806
0.2272953
0.2959203
0.2171763
0.2502407
0.2357839
0.1778271
0.1986444
