# vtk DataFile Version 3.0
vtk output
ASCII
DATASET POLYDATA
POINTS  448  float
0.0000000  0.0000000  0.0287941
-0.0003651  0.0180983  -0.0191554
-0.0065034  0.0001095  0.0078678
-0.0229133  -0.0151218  -0.0048432
-0.0005314  -0.0019044  0.0133952
0.0161787  -0.0139395  -0.0169247
-0.0001594  -0.0005713  0.0241744
0.0108221  0.0161363  0.0120311
0.0014696  -0.0066030  -0.0037803
-0.0077080  -0.0083694  -0.0219572
-0.0047118  -0.0004947  0.0095260
-0.0192646  0.0200716  0.0042305
0.0103083  0.0070338  0.0133019
0.0246752  0.0074955  -0.0007781
-0.0002710  -0.0009713  0.0209406
0.0172991  -0.0153499  0.0150216
0.0016497  -0.0071177  0.0041685
0.0089020  -0.0247103  0.0002435
-0.0002018  -0.0007233  0.0229456
-0.0199784  -0.0052792  0.0172966
0.0083012  -0.0060907  -0.0099539
0.0132603  0.0015152  -0.0145622
-0.0141005  -0.0036047  -0.0027394
-0.0195703  -0.0001002  -0.0191199
0.0154446  0.0102234  0.0036130
0.0163376  0.0180294  -0.0092327
-0.0058041  0.0129218  -0.0047241
-0.0110212  0.0253089  -0.0062196
0.0004719  -0.0043025  0.0091509
-0.0069985  -0.0218576  0.0088186
-0.0018013  -0.0032241  -0.0147553
-0.0023454  0.0069786  -0.0273965
-0.0050543  0.0094560  0.0006137
0.0012999  0.0201970  0.0019233
-0.0006034  -0.0005044  -0.0198218
0.0078046  -0.0034745  -0.0265650
-0.0114543  -0.0029922  0.0040477
-0.0228747  -0.0127599  0.0070993
0.0044199  0.0061952  0.0181740
0.0003987  0.0244020  0.0147086
0.0012021  -0.0060479  0.0060618
0.0233401  -0.0065459  0.0022289
0.0016496  -0.0149894  0.0012674
-0.0045669  -0.0201516  -0.0028283
0.0130296  -0.0093812  0.0015147
0.0181424  -0.0173834  -0.0057974
0.0041750  -0.0187787  -0.0008268
0.0057013  -0.0233082  -0.0117166
0.0122624  0.0082280  0.0069106
0.0084902  0.0057670  -0.0025916
-0.0105368  -0.0059688  0.0194826
-0.0145107  -0.0142506  0.0170338
-0.0000478  -0.0001714  0.0274082
-0.0101073  0.0106170  0.0242324
0.0167557  -0.0077487  0.0004770
0.0197603  -0.0031882  -0.0072749
0.0002486  0.0186562  -0.0000633
0.0048073  0.0269696  -0.0036749
-0.0144072  0.0090215  0.0029972
-0.0227066  0.0099873  -0.0077391
0.0208603  0.0081805  -0.0004526
0.0257770  0.0040096  -0.0119399
-0.0020350  0.0121348  -0.0010227
0.0062852  0.0108471  -0.0097689
-0.0054707  -0.0054597  0.0207061
-0.0060937  -0.0184431  0.0175854
-0.0021557  -0.0179017  -0.0023825
-0.0064379  -0.0199364  -0.0122235
0.0080379  -0.0044271  0.0184473
0.0143435  -0.0009891  0.0171092
-0.0174169  -0.0046017  0.0043269
-0.0229604  -0.0003680  0.0024293
0.0155033  0.0126601  -0.0057479
0.0146338  0.0100047  -0.0151378
-0.0004436  0.0175194  0.0144205
-0.0072051  0.0206293  0.0097191
-0.0017653  -0.0143089  0.0106587
0.0010196  -0.0199766  0.0149158
-0.0103783  0.0062420  0.0073095
-0.0154079  0.0183964  0.0137463
0.0110300  -0.0087945  -0.0149011
0.0112946  -0.0090195  -0.0216474
-0.0187038  -0.0129414  -0.0051902
-0.0179512  -0.0204970  -0.0084866
-0.0056792  -0.0001684  0.0086306
-0.0145351  0.0003538  0.0124056
0.0061864  0.0064468  0.0167124
0.0121272  0.0123334  0.0218104
0.0024072  -0.0161262  0.0006391
0.0010721  -0.0248188  0.0057580
0.0009883  -0.0043899  -0.0075001
0.0043398  0.0026887  -0.0091841
0.0136203  0.0125974  -0.0120447
0.0097720  0.0154709  -0.0175052
-0.0050798  0.0132148  -0.0115826
-0.0078794  0.0095312  -0.0168492
-0.0133066  -0.0034210  -0.0007033
-0.0240145  0.0031791  -0.0048655
0.0090718  0.0068577  0.0143250
0.0231211  0.0004937  0.0147877
0.0018761  0.0155445  0.0145057
0.0067459  0.0252525  0.0077902
-0.0044323  0.0154400  -0.0145413
-0.0095475  0.0196911  -0.0181116
0.0116055  -0.0010534  -0.0153826
0.0144347  0.0032070  -0.0240757
-0.0064290  0.0179324  -0.0061231
-0.0002062  0.0248227  -0.0118327
0.0051855  -0.0041015  0.0200960
0.0084363  -0.0107408  0.0239906
-0.0055868  0.0130097  -0.0067817
-0.0172775  0.0099186  -0.0147642
-0.0046266  0.0147724  -0.0136537
-0.0059092  0.0134829  -0.0218847
-0.0054347  0.0130712  -0.0082220
-0.0021188  0.0065306  -0.0111680
0.0060793  -0.0198622  -0.0076567
0.0092320  -0.0174719  -0.0127740
-0.0182259  -0.0036261  -0.0090672
-0.0241457  -0.0066848  -0.0112982
0.0087439  -0.0090812  0.0037165
0.0119860  -0.0155719  0.0058742
-0.0000717  -0.0039469  -0.0102570
-0.0088371  -0.0128158  -0.0142668
-0.0031230  0.0208636  0.0109509
-0.0042174  0.0267973  0.0060589
-0.0199437  0.0089234  -0.0002907
-0.0270667  0.0078433  0.0004573
0.0074640  -0.0098608  0.0211956
0.0096077  -0.0170829  0.0195723
0.0023352  0.0133593  -0.0070417
0.0040641  0.0179795  -0.0125235
-0.0158935  0.0090798  0.0010175
-0.0143459  0.0096271  -0.0048029
0.0233991  0.0053295  -0.0103491
0.0214986  0.0051483  -0.0161050
0.0059600  -0.0200693  -0.0044567
0.0110763  -0.0246694  -0.0057771
-0.0040116  -0.0194493  -0.0023530
-0.0107620  -0.0246172  -0.0013126
-0.0136326  -0.0005443  0.0110780
-0.0214330  -0.0022571  0.0119786
0.0098866  0.0089716  0.0035863
0.0070108  0.0129932  0.0031828
-0.0023119  -0.0016181  -0.0174397
-0.0084431  0.0014480  -0.0212632
0.0075004  -0.0071879  0.0209818
0.0147225  -0.0084581  0.0230459
-0.0061245  -0.0043543  -0.0176854
-0.0121784  -0.0028502  -0.0190469
-0.0104452  0.0214291  -0.0067273
-0.0155242  0.0219904  -0.0081706
-0.0012824  -0.0034409  -0.0134058
0.0030950  -0.0120914  -0.0224948
0.0138360  0.0031825  0.0135586
0.0140445  -0.0008131  0.0111914
-0.0054890  0.0066520  0.0027899
-0.0021697  0.0052960  -0.0033735
-0.0214169  -0.0032967  0.0042602
-0.0269511  -0.0035700  0.0057153
-0.0081084  -0.0215041  -0.0035249
-0.0128569  -0.0223583  -0.0074300
-0.0010389  0.0174169  -0.0003298
-0.0045437  0.0223811  -0.0001167
-0.0198925  -0.0001066  -0.0141538
-0.0226417  0.0049139  -0.0157446
0.0122719  -0.0077290  -0.0181525
0.0152387  -0.0047963  -0.0207307
-0.0004533  -0.0016245  0.0156588
0.0065078  -0.0003365  0.0125793
-0.0025830  -0.0018377  0.0219680
-0.0070487  0.0004511  0.0202820
0.0114010  -0.0092672  0.0023514
0.0165359  -0.0085975  0.0061029
-0.0035696  -0.0201151  0.0101783
-0.0022286  -0.0264182  0.0110459
-0.0129302  0.0100175  0.0117240
-0.0151813  0.0093077  0.0175583
0.0007494  -0.0049658  0.0079770
0.0060646  -0.0087212  0.0106739
-0.0079012  -0.0106191  -0.0146684
-0.0130076  -0.0125724  -0.0191380
0.0137754  -0.0073899  0.0173949
0.0205909  -0.0056459  0.0176251
-0.0163671  0.0152197  0.0021377
-0.0158556  0.0185291  -0.0014819
-0.0111469  -0.0209737  -0.0068357
-0.0135333  -0.0186336  -0.0108863
-0.0097269  -0.0223327  -0.0020430
-0.0145517  -0.0214187  0.0027930
0.0034646  -0.0069579  0.0053582
0.0054957  -0.0005309  0.0020084
0.0009303  0.0231139  -0.0014209
-0.0012244  0.0274507  -0.0018162
-0.0189770  -0.0027273  -0.0121076
-0.0194240  -0.0060050  -0.0180679
0.0192356  0.0087934  0.0007671
0.0197728  0.0006643  -0.0008513
0.0165616  -0.0102888  0.0147182
0.0207058  -0.0109203  0.0098694
-0.0053400  -0.0007506  0.0216653
-0.0111119  0.0002053  0.0240205
-0.0009162  -0.0010576  0.0226523
-0.0007815  -0.0090618  0.0265415
-0.0117548  -0.0093336  0.0166285
-0.0114807  -0.0108873  0.0113884
-0.0121582  -0.0031551  0.0022423
-0.0118836  -0.0112141  -0.0001677
-0.0023327  -0.0198803  -0.0067421
0.0008827  -0.0232240  -0.0095173
-0.0129260  -0.0105799  0.0136965
-0.0161727  -0.0124528  0.0106487
0.0027283  0.0118655  0.0147149
0.0016036  0.0126390  0.0068289
0.0015668  -0.0068809  0.0005121
-0.0060749  -0.0104111  -0.0016445
0.0045158  -0.0087599  0.0095269
0.0081263  -0.0142243  0.0104300
0.0125120  0.0032733  -0.0214880
0.0108013  0.0083128  -0.0247689
-0.0157781  0.0174847  0.0010253
-0.0131464  0.0250157  0.0011728
-0.0001515  0.0025424  -0.0220394
0.0059841  0.0068273  -0.0210535
0.0037743  0.0225774  0.0096060
0.0016985  0.0267934  0.0066005
0.0185974  0.0050418  -0.0018372
0.0164960  0.0023626  -0.0071468
-0.0001434  -0.0034769  0.0244564
0.0043441  -0.0029014  0.0280380
0.0018973  -0.0015150  -0.0235427
0.0011208  -0.0015680  -0.0273307
-0.0173065  -0.0108650  -0.0038501
-0.0176008  -0.0161165  -0.0003450
-0.0161274  0.0118759  0.0033492
-0.0217943  0.0139149  0.0076605
0.0070479  -0.0216970  0.0006314
0.0128786  -0.0247951  0.0069132
0.0013620  0.0214707  -0.0004174
0.0061074  0.0250681  0.0015773
0.0144899  0.0096248  0.0046023
0.0189916  0.0189988  0.0066317
0.0003424  0.0120146  -0.0036180
0.0040207  0.0082150  -0.0045136
-0.0195443  0.0130087  0.0040962
-0.0234733  0.0141737  0.0023216
0.0026797  0.0036239  0.0204542
0.0070770  0.0086508  0.0256350
-0.0046044  -0.0043731  0.0210847
-0.0100114  -0.0047478  0.0248144
-0.0172732  0.0084549  0.0000629
-0.0179375  0.0049179  -0.0032778
0.0031378  0.0127818  0.0112960
0.0078225  0.0169187  0.0055032
-0.0034549  -0.0189851  -0.0023619
-0.0033835  -0.0271078  0.0004483
0.0109328  0.0078200  -0.0232987
0.0093160  0.0123123  -0.0232677
0.0195067  0.0019253  0.0118200
0.0261301  0.0009973  0.0062958
0.0205563  -0.0057265  -0.0043597
0.0268952  -0.0057386  -0.0079378
-0.0135230  -0.0110744  0.0164317
-0.0190698  -0.0122849  0.0144413
-0.0064366  0.0017784  -0.0205698
-0.0082841  0.0061321  -0.0231564
0.0159482  0.0161026  0.0047944
0.0145534  0.0220465  0.0029693
-0.0232791  0.0084249  0.0015255
-0.0257502  0.0080689  0.0055544
-0.0002406  0.0181853  -0.0001646
0.0063917  0.0179017  -0.0033236
0.0100767  -0.0024137  -0.0124122
0.0108346  0.0047021  -0.0108390
0.0156666  0.0123434  -0.0012279
0.0168498  0.0178817  -0.0022133
0.0175613  -0.0130655  0.0137870
0.0194998  -0.0158673  0.0111325
0.0120148  0.0103082  0.0129741
0.0215063  0.0128671  0.0134113
-0.0132431  -0.0034750  0.0041314
-0.0150732  -0.0067324  0.0104390
-0.0063841  -0.0081574  -0.0134734
-0.0121644  -0.0059034  -0.0146404
0.0062906  -0.0134262  0.0106039
0.0067280  -0.0191803  0.0123411
-0.0103018  0.0132103  -0.0105541
-0.0124056  0.0163759  -0.0134125
0.0058251  -0.0102580  0.0098257
0.0104452  -0.0104617  0.0095842
0.0093770  0.0088946  0.0007013
0.0092635  0.0114433  -0.0014218
-0.0046824  0.0076233  0.0258143
-0.0041368  0.0109382  0.0258059
0.0027438  -0.0223426  0.0054715
0.0055166  -0.0259098  0.0105850
-0.0162952  0.0142165  0.0025012
-0.0119641  0.0194389  0.0061056
0.0152782  0.0190866  0.0051351
0.0147507  0.0216650  0.0075754
-0.0178354  0.0002379  0.0124424
-0.0219564  0.0037174  0.0151791
0.0020682  0.0054481  -0.0221661
0.0025169  0.0092471  -0.0233367
0.0149377  0.0169910  -0.0079255
0.0125296  0.0219913  -0.0095424
0.0060412  -0.0041992  0.0196014
0.0103442  -0.0002050  0.0231932
-0.0131985  0.0081877  0.0042909
-0.0137350  0.0054285  0.0002936
0.0016496  -0.0119981  0.0023698
-0.0050350  -0.0136970  0.0008563
-0.0201155  -0.0006352  0.0122847
-0.0251281  0.0002390  0.0124751
-0.0049438  0.0136821  -0.0122040
-0.0001773  0.0127868  -0.0145538
-0.0192363  -0.0078989  0.0066121
-0.0192365  -0.0093847  0.0101120
-0.0024544  -0.0012560  0.0116153
-0.0058489  -0.0030607  0.0134293
0.0164146  -0.0141252  0.0000129
0.0207364  -0.0194649  0.0024186
0.0104395  -0.0035299  0.0164884
0.0112102  -0.0041695  0.0125981
-0.0016981  0.0034779  0.0263236
-0.0002488  0.0064085  0.0236460
-0.0204355  0.0019267  -0.0152289
-0.0184690  0.0047345  -0.0187654
0.0096140  -0.0012093  0.0209778
0.0138836  0.0019142  0.0204123
0.0016720  0.0125526  -0.0045563
0.0059962  0.0132638  -0.0037172
0.0161243  0.0132159  0.0124641
0.0185562  0.0184996  0.0107781
-0.0006771  -0.0036939  -0.0118314
-0.0026942  0.0007615  -0.0120388
0.0054245  -0.0196821  -0.0033678
0.0111742  -0.0173656  -0.0044801
-0.0044589  -0.0217083  0.0000704
-0.0071021  -0.0217486  0.0039162
0.0120542  -0.0065010  0.0177106
0.0128056  -0.0081942  0.0123003
-0.0046769  0.0207020  -0.0093707
-0.0055053  0.0219179  -0.0128278
0.0016424  -0.0002460  0.0141046
0.0010913  0.0057382  0.0104963
0.0001286  -0.0219825  -0.0096463
0.0018643  -0.0226113  -0.0131497
0.0101847  -0.0221844  -0.0045541
0.0152009  -0.0223660  -0.0032954
0.0005007  -0.0041861  -0.0087683
0.0000038  -0.0085859  -0.0106463
0.0117991  0.0148370  0.0132318
0.0126077  0.0198217  0.0149724
-0.0100349  0.0000502  0.0229002
-0.0178487  0.0014870  0.0219062
0.0011327  -0.0050538  -0.0063841
-0.0036221  0.0004877  -0.0059645
0.0005854  -0.0223244  -0.0119422
-0.0009481  -0.0228527  -0.0172872
-0.0051296  -0.0211067  0.0102238
-0.0080991  -0.0238373  0.0131260
0.0035190  -0.0064493  -0.0056324
0.0062103  -0.0109040  -0.0057777
0.0027441  -0.0197168  0.0041252
0.0035875  -0.0191274  0.0079359
-0.0051041  0.0059763  -0.0003904
-0.0091410  0.0044403  -0.0080401
-0.0003695  -0.0013240  0.0180884
-0.0044300  0.0008131  0.0163827
0.0016581  -0.0021860  -0.0250804
0.0016860  -0.0062055  -0.0272214
0.0046506  -0.0203499  -0.0002183
0.0020314  -0.0243737  0.0007076
0.0114625  0.0001591  -0.0119291
0.0185136  0.0022402  -0.0119957
0.0013235  0.0195147  0.0011304
0.0052983  0.0209364  0.0034963
-0.0136718  -0.0035055  -0.0016399
-0.0131168  0.0007013  -0.0040152
-0.0156022  0.0091998  0.0153823
-0.0199004  0.0079084  0.0181216
-0.0034264  -0.0000329  -0.0182810
-0.0023178  0.0031544  -0.0174127
0.0180983  0.0092224  0.0016209
0.0229286  0.0093907  0.0036042
0.0142598  0.0113172  -0.0143731
0.0150750  0.0114163  -0.0191760
-0.0052718  -0.0103320  0.0182523
-0.0042262  -0.0117324  0.0146174
0.0000583  -0.0099183  -0.0197477
-0.0027475  -0.0142167  -0.0230711
0.0025978  0.0074237  -0.0222054
0.0049859  0.0122330  -0.0201896
0.0227283  -0.0069608  0.0012276
0.0267990  -0.0069968  0.0001544
-0.0036170  0.0191240  0.0000693
-0.0072424  0.0192587  0.0009128
-0.0153381  -0.0036111  -0.0046378
-0.0133035  -0.0004493  -0.0075623
-0.0022088  -0.0184953  -0.0036903
0.0005314  -0.0235229  -0.0035607
-0.0022430  0.0216970  -0.0110110
0.0001835  0.0207235  -0.0131185
0.0014023  0.0045764  -0.0221281
0.0064198  0.0051066  -0.0271629
0.0016496  -0.0138527  0.0016863
0.0054235  -0.0138542  -0.0028068
-0.0062479  -0.0198374  -0.0116053
-0.0092780  -0.0196308  -0.0147138
-0.0185672  -0.0138345  -0.0012875
-0.0214727  -0.0154686  0.0012961
0.0185790  -0.0102691  0.0133858
0.0229795  -0.0089303  0.0145526
0.0150987  0.0113334  -0.0160249
0.0186800  0.0112419  -0.0169084
0.0159084  0.0164607  -0.0021264
0.0137594  0.0247420  -0.0046194
0.0193520  -0.0070759  -0.0031207
0.0214559  -0.0103096  -0.0076015
-0.0217756  -0.0042530  -0.0090624
-0.0258292  -0.0032433  -0.0071378
-0.0142965  -0.0001873  0.0224505
-0.0163249  -0.0024399  0.0224301
0.0161664  -0.0081817  0.0052785
0.0210847  -0.0063471  0.0074460
-0.0068354  -0.0222237  0.0108911
-0.0115871  -0.0238190  0.0093933
-0.0124606  -0.0206717  0.0007297
-0.0139759  -0.0174451  0.0023325
-0.0071462  -0.0135862  0.0187676
-0.0112617  -0.0150016  0.0206645
0.0055365  -0.0199101  -0.0063379
0.0025682  -0.0195679  -0.0080651
-0.0010080  -0.0095700  0.0094282
-0.0032275  -0.0111934  0.0065008
-0.0047619  -0.0094398  -0.0020585
-0.0079358  -0.0099681  -0.0049716
-0.0185714  -0.0032126  -0.0104658
-0.0147167  -0.0035413  -0.0134703
0.0121703  -0.0136979  0.0050337
0.0163494  -0.0162971  0.0053382
-0.0024597  0.0186202  0.0135597
-0.0096769  0.0189328  0.0149633
-0.0017016  -0.0012097  0.0174923
-0.0020538  -0.0046289  0.0171197
0.0033047  -0.0238584  0.0002092
0.0035856  -0.0271319  -0.0000142

LINES  447  1341
2  0  52
2  52  324
2  324  325
2  324  292
2  292  293
2  292  53
2  52  6
2  6  246
2  246  247
2  246  38
2  38  212
2  212  252
2  252  253
2  252  213
2  212  100
2  100  224
2  224  225
2  224  101
2  100  74
2  74  442
2  442  443
2  442  124
2  124  125
2  124  75
2  74  39
2  38  86
2  86  98
2  98  154
2  154  155
2  154  258
2  258  99
2  258  259
2  98  12
2  12  48
2  48  142
2  142  143
2  142  290
2  290  49
2  290  291
2  48  240
2  240  24
2  24  274
2  274  416
2  416  417
2  416  275
2  274  72
2  72  92
2  92  93
2  92  386
2  386  73
2  386  414
2  414  387
2  414  415
2  72  304
2  304  25
2  304  305
2  24  384
2  384  196
2  196  60
2  60  13
2  60  134
2  134  61
2  134  135
2  196  226
2  226  197
2  226  227
2  384  385
2  240  266
2  266  241
2  266  298
2  298  267
2  298  299
2  12  278
2  278  352
2  352  353
2  352  7
2  278  332
2  332  279
2  332  333
2  86  87
2  6  18
2  18  14
2  14  368
2  368  444
2  444  445
2  444  369
2  368  168
2  168  344
2  344  345
2  344  169
2  168  4
2  4  28
2  28  434
2  434  435
2  434  76
2  76  77
2  76  174
2  174  360
2  360  426
2  426  427
2  426  361
2  360  29
2  174  175
2  28  178
2  178  40
2  40  16
2  16  310
2  310  311
2  310  406
2  406  42
2  42  66
2  66  400
2  400  401
2  400  208
2  208  346
2  346  358
2  358  359
2  358  347
2  346  209
2  208  408
2  408  67
2  408  409
2  66  254
2  254  138
2  138  43
2  138  160
2  160  188
2  188  428
2  428  429
2  428  189
2  188  139
2  160  186
2  186  161
2  186  187
2  254  338
2  338  255
2  338  339
2  42  88
2  88  46
2  46  372
2  372  446
2  446  447
2  446  373
2  372  236
2  236  237
2  236  17
2  46  336
2  336  136
2  136  432
2  432  433
2  432  116
2  116  47
2  116  117
2  136  348
2  348  137
2  348  349
2  336  337
2  88  364
2  364  294
2  294  89
2  294  295
2  364  365
2  406  407
2  16  214
2  214  8
2  8  356
2  356  357
2  356  90
2  90  91
2  90  350
2  350  122
2  122  334
2  334  335
2  334  152
2  152  390
2  390  391
2  390  153
2  152  30
2  30  144
2  144  382
2  382  383
2  382  264
2  264  265
2  264  145
2  144  34
2  34  230
2  230  370
2  370  371
2  370  231
2  230  35
2  34  222
2  222  31
2  222  404
2  404  302
2  302  223
2  302  392
2  392  303
2  392  393
2  404  405
2  30  148
2  148  9
2  148  149
2  122  282
2  282  180
2  180  123
2  180  181
2  282  283
2  350  351
2  8  362
2  362  20
2  20  80
2  80  166
2  166  167
2  166  81
2  80  5
2  20  272
2  272  104
2  104  21
2  104  218
2  218  105
2  218  256
2  256  219
2  256  257
2  272  374
2  374  273
2  374  375
2  362  363
2  214  436
2  436  215
2  436  437
2  40  190
2  190  120
2  120  172
2  172  424
2  424  425
2  424  173
2  172  44
2  44  54
2  54  418
2  418  419
2  418  260
2  260  261
2  260  55
2  54  394
2  394  41
2  394  395
2  44  320
2  320  45
2  320  321
2  120  440
2  440  121
2  440  441
2  190  191
2  178  216
2  216  179
2  216  288
2  288  284
2  284  217
2  284  285
2  288  289
2  4  318
2  318  10
2  10  84
2  84  140
2  140  300
2  300  301
2  300  312
2  312  141
2  312  313
2  140  85
2  84  2
2  2  36
2  36  280
2  280  281
2  280  70
2  70  158
2  158  159
2  158  71
2  70  316
2  316  37
2  316  317
2  36  206
2  206  96
2  96  378
2  378  379
2  378  22
2  22  398
2  398  399
2  398  118
2  118  420
2  420  421
2  420  119
2  118  438
2  438  194
2  194  164
2  164  23
2  164  326
2  326  165
2  326  327
2  194  195
2  438  439
2  22  232
2  232  82
2  82  3
2  82  83
2  232  410
2  410  233
2  410  411
2  96  97
2  206  207
2  2  156
2  156  32
2  32  26
2  26  110
2  110  286
2  286  287
2  286  111
2  110  114
2  114  94
2  94  95
2  94  314
2  314  112
2  112  102
2  102  1
2  102  103
2  112  113
2  314  315
2  114  115
2  26  106
2  106  150
2  150  151
2  150  27
2  106  342
2  342  402
2  402  403
2  402  107
2  342  343
2  32  62
2  62  162
2  162  396
2  396  397
2  396  163
2  162  270
2  270  56
2  56  376
2  376  377
2  376  33
2  56  238
2  238  192
2  192  57
2  192  193
2  238  239
2  270  271
2  62  242
2  242  330
2  330  331
2  330  130
2  130  63
2  130  131
2  242  243
2  156  366
2  366  157
2  366  367
2  10  78
2  78  308
2  308  309
2  308  58
2  58  234
2  234  244
2  244  245
2  244  235
2  234  296
2  296  184
2  184  220
2  220  221
2  220  185
2  184  11
2  296  297
2  58  132
2  132  250
2  250  251
2  250  126
2  126  59
2  126  268
2  268  127
2  268  269
2  132  133
2  78  176
2  176  79
2  176  380
2  380  177
2  380  381
2  318  319
2  14  108
2  108  306
2  306  328
2  328  329
2  328  307
2  306  68
2  68  340
2  340  341
2  340  182
2  182  183
2  182  198
2  198  276
2  276  277
2  276  15
2  198  412
2  412  199
2  412  413
2  68  322
2  322  69
2  322  323
2  108  146
2  146  128
2  128  109
2  128  129
2  146  147
2  18  202
2  202  170
2  170  248
2  248  249
2  248  64
2  64  50
2  50  19
2  50  204
2  204  262
2  262  263
2  262  51
2  204  210
2  210  205
2  210  211
2  64  388
2  388  430
2  430  431
2  430  65
2  388  389
2  170  200
2  200  171
2  200  354
2  354  201
2  354  422
2  422  355
2  422  423
2  202  228
2  228  203
2  228  229

CELL_DATA  447
scalars raio float
LOOKUP_TABLE default
1.2014455
0.2441616
0.1479577
0.2245119
0.1628452
0.1912770
1.1980748
0.6700376
0.1671938
0.6665494
0.3978511
0.2336986
0.1980673
0.1709194
0.3689197
0.2588784
0.2114259
0.1991514
0.3203028
0.2970260
0.2000236
0.2630515
0.2231329
0.1921341
0.1881081
0.6154909
0.6104518
0.2831788
0.1661360
0.2626679
0.1925924
0.2222565
0.5894235
0.5626596
0.2684898
0.1787527
0.2389478
0.1971865
0.1814681
0.5414950
0.5133839
0.4313925
0.2539099
0.2332760
0.1543230
0.3998172
0.3566480
0.2358344
0.3182991
0.1781775
0.2984797
0.2321524
0.2414714
0.2647044
0.1819555
0.2322234
0.3803577
0.3670206
0.3155155
0.1742705
0.2966931
0.2148318
0.2530396
0.2622177
0.1998357
0.2157969
0.1774532
0.2862963
0.1889389
0.2557174
0.2039929
0.2019227
0.2986889
0.2276097
0.1996172
0.1565598
0.2458293
0.1926283
0.1975396
0.1784231
1.1236961
1.1001219
1.0768098
0.1798633
0.1421683
0.1433420
1.0751345
0.2094056
0.1725385
0.1593488
1.0724800
0.8798422
0.3501366
0.1505257
0.3406063
0.1888862
0.3200246
0.2889174
0.2673161
0.2255693
0.1968208
0.1711689
0.2053448
0.8609564
0.8511448
0.8048311
0.6038343
0.1722371
0.5991265
0.5947916
0.4822087
0.3637188
0.1814772
0.3479887
0.2923882
0.2761859
0.2454590
0.1844779
0.1578008
0.2578501
0.1494376
0.2398982
0.4000184
0.3645219
0.1193323
0.3602081
0.3023382
0.2811641
0.2300167
0.2158541
0.1755417
0.2673109
0.1880962
0.2317439
0.2497198
0.2022672
0.1939644
0.4615104
0.4251304
0.3051240
0.2274668
0.1968184
0.1606373
0.2552892
0.2233127
0.1765342
0.3645037
0.3463683
0.2895717
0.1765835
0.2657823
0.2057724
0.2158881
0.2584975
0.1894549
0.2187876
0.1901466
0.2778995
0.2533394
0.1786536
0.2193745
0.1732714
0.1667240
0.6702978
0.6617094
0.5800024
0.1783397
0.5743267
0.1840716
0.5679537
0.5633923
0.5324282
0.1685155
0.5267407
0.2729329
0.2238554
0.2088809
0.5010854
0.4753810
0.2848273
0.1741209
0.2612371
0.2281296
0.1812617
0.4385124
0.3096107
0.2614764
0.2227514
0.1896818
0.2276754
0.3794729
0.2191818
0.3533404
0.3167729
0.2108196
0.2819622
0.1935994
0.2474977
0.2310084
0.2639336
0.2081634
0.2107887
0.3032760
0.2673909
0.1808558
0.2363469
0.2062707
0.1635993
0.4556830
0.4484769
0.3063827
0.2667512
0.2179131
0.2051430
0.2138462
0.3945995
0.3523888
0.1718218
0.3382093
0.2029244
0.3118590
0.2090856
0.2767203
0.2605300
0.1947082
0.2175912
0.1640915
0.2252500
0.1556037
0.1971347
0.4567348
0.4485930
0.4272003
0.2343024
0.2163197
0.1399342
0.4022817
0.3585130
0.3106852
0.2078438
0.2759377
0.2343798
0.2011183
0.2524622
0.1663714
0.2256273
0.2669395
0.2103755
0.2133438
0.2308903
0.1614858
0.2008106
0.1710543
0.2783689
0.1333042
0.2677815
0.2400741
0.1615942
0.2126582
0.1750610
0.8205484
0.8191143
0.7530930
0.2985550
0.2889280
0.2037096
0.2502188
0.1747653
0.2177753
0.1355793
0.7371158
0.5496031
0.3322643
0.1788652
0.3140010
0.2479351
0.2064313
0.1860898
0.2504972
0.2097948
0.1864773
0.5057121
0.4975726
0.4846904
0.1652884
0.4781965
0.4140356
0.1705767
0.4041507
0.2556997
0.2060290
0.1997725
0.3666631
0.3490439
0.3205739
0.2140490
0.2849524
0.2182040
0.2336054
0.2123839
0.1891770
0.3372964
0.2762701
0.2031269
0.2333427
0.2585693
0.1926877
0.2163961
0.2104637
0.1831635
0.6166532
0.6055712
0.4985934
0.4252550
0.2709004
0.1973927
0.2301410
0.3849026
0.3661106
0.2041160
0.3436069
0.3216498
0.2797981
0.2187192
0.2253341
0.2248831
0.1939059
0.1995906
0.3609955
0.2679138
0.2201721
0.2045400
0.3029845
0.2741481
0.2140304
0.2210396
0.1931842
0.4612395
0.4042726
0.2417098
0.1940662
0.1895716
0.3731345
0.3510097
0.2287804
0.2087121
0.1423223
0.3150564
0.2774905
0.2255197
0.2147034
0.2147635
0.2057035
0.3176525
0.2956237
0.1825352
0.2703226
0.2059829
0.2224924
0.1838725
0.2315604
0.1657405
0.1988555
0.4965998
0.4616103
0.1661825
0.4543163
0.3721176
0.2481766
0.1978409
0.1961073
0.3309312
0.3003834
0.2662497
0.2354623
0.1798717
0.2018944
0.2090696
0.3482764
0.3296328
0.1822200
0.3099158
0.2177580
0.2688887
0.2086445
0.2179853
0.1859290
0.2888716
0.2070441
0.2478753
0.1736237
0.2154153
0.1424707
0.4359629
0.4016105
0.2160641
0.1857329
0.1543818
0.3795782
0.3547388
0.1735720
0.3403081
0.1885544
0.3198023
0.2513411
0.2112021
0.1862118
0.2562657
0.2000026
0.2066841
0.2157970
0.1745686
0.1678563
0.2624838
0.2287334
0.1588444
0.1996594
0.1828902
0.4438510
0.4283426
0.3905197
0.1624636
0.3809126
0.3313273
0.1949678
0.3070945
0.2445939
0.2070340
0.1792459
0.2428822
0.1782515
0.2053897
0.2663521
0.2439873
0.1918636
0.1954097
0.1635085
0.2670028
0.1314168
0.2559386
0.1332103
0.2432955
0.1993553
0.1864190
0.2068392
0.1649503
0.1633790
