# vtk DataFile Version 3.0
vtk output
ASCII
DATASET POLYDATA
POINTS  64  float
0.0000000  0.0000000  0.0287941
-0.0003651  0.0180983  -0.0191554
-0.0065034  0.0001095  0.0078678
-0.0229133  -0.0151218  -0.0048432
-0.0005314  -0.0019044  0.0133952
0.0161787  -0.0139395  -0.0169247
-0.0001594  -0.0005713  0.0241744
0.0108221  0.0161363  0.0120311
0.0014696  -0.0066030  -0.0037803
-0.0077080  -0.0083694  -0.0219572
-0.0047118  -0.0004947  0.0095260
-0.0192646  0.0200716  0.0042305
0.0103083  0.0070338  0.0133019
0.0246752  0.0074955  -0.0007781
-0.0002710  -0.0009713  0.0209406
0.0172991  -0.0153499  0.0150216
0.0016497  -0.0071177  0.0041685
0.0089020  -0.0247103  0.0002435
-0.0002018  -0.0007233  0.0229456
-0.0199784  -0.0052792  0.0172966
0.0083012  -0.0060907  -0.0099539
0.0132603  0.0015152  -0.0145622
-0.0141005  -0.0036047  -0.0027394
-0.0195703  -0.0001002  -0.0191199
0.0154446  0.0102234  0.0036130
0.0163376  0.0180294  -0.0092327
-0.0058041  0.0129218  -0.0047241
-0.0110212  0.0253089  -0.0062196
0.0004719  -0.0043025  0.0091509
-0.0069985  -0.0218576  0.0088186
-0.0018013  -0.0032241  -0.0147553
-0.0023454  0.0069786  -0.0273965
-0.0050543  0.0094560  0.0006137
0.0012999  0.0201970  0.0019233
-0.0006034  -0.0005044  -0.0198218
0.0078046  -0.0034745  -0.0265650
-0.0114543  -0.0029922  0.0040477
-0.0228747  -0.0127599  0.0070993
0.0044199  0.0061952  0.0181740
0.0003987  0.0244020  0.0147086
0.0012021  -0.0060479  0.0060618
0.0233401  -0.0065459  0.0022289
0.0016496  -0.0149894  0.0012674
-0.0045669  -0.0201516  -0.0028283
0.0130296  -0.0093812  0.0015147
0.0181424  -0.0173834  -0.0057974
0.0041750  -0.0187787  -0.0008268
0.0057013  -0.0233082  -0.0117166
0.0122624  0.0082280  0.0069106
0.0084902  0.0057670  -0.0025916
-0.0105368  -0.0059688  0.0194826
-0.0145107  -0.0142506  0.0170338
-0.0000478  -0.0001714  0.0274082
-0.0101073  0.0106170  0.0242324
0.0167557  -0.0077487  0.0004770
0.0197603  -0.0031882  -0.0072749
0.0002486  0.0186562  -0.0000633
0.0048073  0.0269696  -0.0036749
-0.0144072  0.0090215  0.0029972
-0.0227066  0.0099873  -0.0077391
0.0208603  0.0081805  -0.0004526
0.0257770  0.0040096  -0.0119399
-0.0020350  0.0121348  -0.0010227
0.0062852  0.0108471  -0.0097689

LINES  63  189
2  0  52
2  52  53
2  52  6
2  6  38
2  38  39
2  38  12
2  12  48
2  48  49
2  48  24
2  24  25
2  24  60
2  60  13
2  60  61
2  12  7
2  6  18
2  18  14
2  14  4
2  4  28
2  28  29
2  28  40
2  40  16
2  16  42
2  42  43
2  42  46
2  46  17
2  46  47
2  16  8
2  8  30
2  30  34
2  34  35
2  34  31
2  30  9
2  8  20
2  20  5
2  20  21
2  40  44
2  44  54
2  54  55
2  54  41
2  44  45
2  4  10
2  10  2
2  2  36
2  36  37
2  36  22
2  22  23
2  22  3
2  2  32
2  32  26
2  26  1
2  26  27
2  32  62
2  62  56
2  56  33
2  56  57
2  62  63
2  10  58
2  58  11
2  58  59
2  14  15
2  18  50
2  50  19
2  50  51

CELL_DATA  63
scalars raio float
LOOKUP_TABLE default
0.7040643
0.1871910
0.6996257
0.3978420
0.2117163
0.3767587
0.3607363
0.2052297
0.3370763
0.2370845
0.2922944
0.1925783
0.2612486
0.1869783
0.6538083
0.6408285
0.6328988
0.5133418
0.2115964
0.5010670
0.4545774
0.3092911
0.1994880
0.2787030
0.2084279
0.2326585
0.4007217
0.3431882
0.3086658
0.2460721
0.2438946
0.2224794
0.2881571
0.2357278
0.2212339
0.3170424
0.2760158
0.2273489
0.2101216
0.2213117
0.4908174
0.4560937
0.3303403
0.2152434
0.2965384
0.2406597
0.2298158
0.3889231
0.2989647
0.2426374
0.2316868
0.3178355
0.2767572
0.1792545
0.2490001
0.2217860
0.2858687
0.2236033
0.2300923
0.2128923
0.2536371
0.2018583
0.2007624
