# vtk DataFile Version 3.0
vtk output
ASCII
DATASET POLYDATA
POINTS  192  float
0.0000000  0.0000000  0.0287941
-0.0003651  0.0180983  -0.0191554
-0.0065034  0.0001095  0.0078678
-0.0229133  -0.0151218  -0.0048432
-0.0005314  -0.0019044  0.0133952
0.0161787  -0.0139395  -0.0169247
-0.0001594  -0.0005713  0.0241744
0.0108221  0.0161363  0.0120311
0.0014696  -0.0066030  -0.0037803
-0.0077080  -0.0083694  -0.0219572
-0.0047118  -0.0004947  0.0095260
-0.0192646  0.0200716  0.0042305
0.0103083  0.0070338  0.0133019
0.0246752  0.0074955  -0.0007781
-0.0002710  -0.0009713  0.0209406
0.0172991  -0.0153499  0.0150216
0.0016497  -0.0071177  0.0041685
0.0089020  -0.0247103  0.0002435
-0.0002018  -0.0007233  0.0229456
-0.0199784  -0.0052792  0.0172966
0.0083012  -0.0060907  -0.0099539
0.0132603  0.0015152  -0.0145622
-0.0141005  -0.0036047  -0.0027394
-0.0195703  -0.0001002  -0.0191199
0.0154446  0.0102234  0.0036130
0.0163376  0.0180294  -0.0092327
-0.0058041  0.0129218  -0.0047241
-0.0110212  0.0253089  -0.0062196
0.0004719  -0.0043025  0.0091509
-0.0069985  -0.0218576  0.0088186
-0.0018013  -0.0032241  -0.0147553
-0.0023454  0.0069786  -0.0273965
-0.0050543  0.0094560  0.0006137
0.0012999  0.0201970  0.0019233
-0.0006034  -0.0005044  -0.0198218
0.0078046  -0.0034745  -0.0265650
-0.0114543  -0.0029922  0.0040477
-0.0228747  -0.0127599  0.0070993
0.0044199  0.0061952  0.0181740
0.0003987  0.0244020  0.0147086
0.0012021  -0.0060479  0.0060618
0.0233401  -0.0065459  0.0022289
0.0016496  -0.0149894  0.0012674
-0.0045669  -0.0201516  -0.0028283
0.0130296  -0.0093812  0.0015147
0.0181424  -0.0173834  -0.0057974
0.0041750  -0.0187787  -0.0008268
0.0057013  -0.0233082  -0.0117166
0.0122624  0.0082280  0.0069106
0.0084902  0.0057670  -0.0025916
-0.0105368  -0.0059688  0.0194826
-0.0145107  -0.0142506  0.0170338
-0.0000478  -0.0001714  0.0274082
-0.0101073  0.0106170  0.0242324
0.0167557  -0.0077487  0.0004770
0.0197603  -0.0031882  -0.0072749
0.0002486  0.0186562  -0.0000633
0.0048073  0.0269696  -0.0036749
-0.0144072  0.0090215  0.0029972
-0.0227066  0.0099873  -0.0077391
0.0208603  0.0081805  -0.0004526
0.0257770  0.0040096  -0.0119399
-0.0020350  0.0121348  -0.0010227
0.0062852  0.0108471  -0.0097689
-0.0054707  -0.0054597  0.0207061
-0.0060937  -0.0184431  0.0175854
-0.0021557  -0.0179017  -0.0023825
-0.0064379  -0.0199364  -0.0122235
0.0080379  -0.0044271  0.0184473
0.0143435  -0.0009891  0.0171092
-0.0174169  -0.0046017  0.0043269
-0.0229604  -0.0003680  0.0024293
0.0155033  0.0126601  -0.0057479
0.0146338  0.0100047  -0.0151378
-0.0004436  0.0175194  0.0144205
-0.0072051  0.0206293  0.0097191
-0.0017653  -0.0143089  0.0106587
0.0010196  -0.0199766  0.0149158
-0.0103783  0.0062420  0.0073095
-0.0154079  0.0183964  0.0137463
0.0110300  -0.0087945  -0.0149011
0.0112946  -0.0090195  -0.0216474
-0.0187038  -0.0129414  -0.0051902
-0.0179512  -0.0204970  -0.0084866
-0.0056792  -0.0001684  0.0086306
-0.0145351  0.0003538  0.0124056
0.0061864  0.0064468  0.0167124
0.0121272  0.0123334  0.0218104
0.0024072  -0.0161262  0.0006391
0.0010721  -0.0248188  0.0057580
0.0009883  -0.0043899  -0.0075001
0.0043398  0.0026887  -0.0091841
0.0136203  0.0125974  -0.0120447
0.0097720  0.0154709  -0.0175052
-0.0050798  0.0132148  -0.0115826
-0.0078794  0.0095312  -0.0168492
-0.0133066  -0.0034210  -0.0007033
-0.0240145  0.0031791  -0.0048655
0.0090718  0.0068577  0.0143250
0.0231211  0.0004937  0.0147877
0.0018761  0.0155445  0.0145057
0.0067459  0.0252525  0.0077902
-0.0044323  0.0154400  -0.0145413
-0.0095475  0.0196911  -0.0181116
0.0116055  -0.0010534  -0.0153826
0.0144347  0.0032070  -0.0240757
-0.0064290  0.0179324  -0.0061231
-0.0002062  0.0248227  -0.0118327
0.0051855  -0.0041015  0.0200960
0.0084363  -0.0107408  0.0239906
-0.0055868  0.0130097  -0.0067817
-0.0172775  0.0099186  -0.0147642
-0.0046266  0.0147724  -0.0136537
-0.0059092  0.0134829  -0.0218847
-0.0054347  0.0130712  -0.0082220
-0.0021188  0.0065306  -0.0111680
0.0060793  -0.0198622  -0.0076567
0.0092320  -0.0174719  -0.0127740
-0.0182259  -0.0036261  -0.0090672
-0.0241457  -0.0066848  -0.0112982
0.0087439  -0.0090812  0.0037165
0.0119860  -0.0155719  0.0058742
-0.0000717  -0.0039469  -0.0102570
-0.0088371  -0.0128158  -0.0142668
-0.0031230  0.0208636  0.0109509
-0.0042174  0.0267973  0.0060589
-0.0199437  0.0089234  -0.0002907
-0.0270667  0.0078433  0.0004573
0.0074640  -0.0098608  0.0211956
0.0096077  -0.0170829  0.0195723
0.0023352  0.0133593  -0.0070417
0.0040641  0.0179795  -0.0125235
-0.0158935  0.0090798  0.0010175
-0.0143459  0.0096271  -0.0048029
0.0233991  0.0053295  -0.0103491
0.0214986  0.0051483  -0.0161050
0.0059600  -0.0200693  -0.0044567
0.0110763  -0.0246694  -0.0057771
-0.0040116  -0.0194493  -0.0023530
-0.0107620  -0.0246172  -0.0013126
-0.0136326  -0.0005443  0.0110780
-0.0214330  -0.0022571  0.0119786
0.0098866  0.0089716  0.0035863
0.0070108  0.0129932  0.0031828
-0.0023119  -0.0016181  -0.0174397
-0.0084431  0.0014480  -0.0212632
0.0075004  -0.0071879  0.0209818
0.0147225  -0.0084581  0.0230459
-0.0061245  -0.0043543  -0.0176854
-0.0121784  -0.0028502  -0.0190469
-0.0104452  0.0214291  -0.0067273
-0.0155242  0.0219904  -0.0081706
-0.0012824  -0.0034409  -0.0134058
0.0030950  -0.0120914  -0.0224948
0.0138360  0.0031825  0.0135586
0.0140445  -0.0008131  0.0111914
-0.0054890  0.0066520  0.0027899
-0.0021697  0.0052960  -0.0033735
-0.0214169  -0.0032967  0.0042602
-0.0269511  -0.0035700  0.0057153
-0.0081084  -0.0215041  -0.0035249
-0.0128569  -0.0223583  -0.0074300
-0.0010389  0.0174169  -0.0003298
-0.0045437  0.0223811  -0.0001167
-0.0198925  -0.0001066  -0.0141538
-0.0226417  0.0049139  -0.0157446
0.0122719  -0.0077290  -0.0181525
0.0152387  -0.0047963  -0.0207307
-0.0004533  -0.0016245  0.0156588
0.0065078  -0.0003365  0.0125793
-0.0025830  -0.0018377  0.0219680
-0.0070487  0.0004511  0.0202820
0.0114010  -0.0092672  0.0023514
0.0165359  -0.0085975  0.0061029
-0.0035696  -0.0201151  0.0101783
-0.0022286  -0.0264182  0.0110459
-0.0129302  0.0100175  0.0117240
-0.0151813  0.0093077  0.0175583
0.0007494  -0.0049658  0.0079770
0.0060646  -0.0087212  0.0106739
-0.0079012  -0.0106191  -0.0146684
-0.0130076  -0.0125724  -0.0191380
0.0137754  -0.0073899  0.0173949
0.0205909  -0.0056459  0.0176251
-0.0163671  0.0152197  0.0021377
-0.0158556  0.0185291  -0.0014819
-0.0111469  -0.0209737  -0.0068357
-0.0135333  -0.0186336  -0.0108863
-0.0097269  -0.0223327  -0.0020430
-0.0145517  -0.0214187  0.0027930
0.0034646  -0.0069579  0.0053582
0.0054957  -0.0005309  0.0020084

LINES  191  573
2  0  52
2  52  53
2  52  6
2  6  38
2  38  100
2  100  101
2  100  74
2  74  124
2  124  125
2  124  75
2  74  39
2  38  86
2  86  98
2  98  154
2  154  155
2  154  99
2  98  12
2  12  48
2  48  142
2  142  143
2  142  49
2  48  24
2  24  72
2  72  92
2  92  93
2  92  73
2  72  25
2  24  60
2  60  13
2  60  134
2  134  61
2  134  135
2  12  7
2  86  87
2  6  18
2  18  14
2  14  168
2  168  169
2  168  4
2  4  28
2  28  76
2  76  77
2  76  174
2  174  29
2  174  175
2  28  178
2  178  40
2  40  16
2  16  42
2  42  66
2  66  67
2  66  138
2  138  43
2  138  160
2  160  188
2  188  189
2  188  139
2  160  186
2  186  161
2  186  187
2  42  88
2  88  46
2  46  17
2  46  136
2  136  116
2  116  47
2  116  117
2  136  137
2  88  89
2  16  8
2  8  90
2  90  91
2  90  122
2  122  152
2  152  153
2  152  30
2  30  144
2  144  145
2  144  34
2  34  35
2  34  31
2  30  148
2  148  9
2  148  149
2  122  180
2  180  123
2  180  181
2  8  20
2  20  80
2  80  166
2  166  167
2  166  81
2  80  5
2  20  104
2  104  21
2  104  105
2  40  190
2  190  120
2  120  172
2  172  173
2  172  44
2  44  54
2  54  55
2  54  41
2  44  45
2  120  121
2  190  191
2  178  179
2  4  10
2  10  84
2  84  140
2  140  141
2  140  85
2  84  2
2  2  36
2  36  70
2  70  158
2  158  159
2  158  71
2  70  37
2  36  96
2  96  22
2  22  118
2  118  119
2  118  164
2  164  23
2  164  165
2  22  82
2  82  3
2  82  83
2  96  97
2  2  156
2  156  32
2  32  26
2  26  110
2  110  111
2  110  114
2  114  94
2  94  95
2  94  112
2  112  102
2  102  1
2  102  103
2  112  113
2  114  115
2  26  106
2  106  150
2  150  151
2  150  27
2  106  107
2  32  62
2  62  162
2  162  163
2  162  56
2  56  33
2  56  57
2  62  130
2  130  63
2  130  131
2  156  157
2  10  78
2  78  58
2  58  184
2  184  185
2  184  11
2  58  132
2  132  126
2  126  59
2  126  127
2  132  133
2  78  176
2  176  79
2  176  177
2  14  108
2  108  68
2  68  182
2  182  183
2  182  15
2  68  69
2  108  146
2  146  128
2  128  109
2  128  129
2  146  147
2  18  170
2  170  64
2  64  50
2  50  19
2  50  51
2  64  65
2  170  171

CELL_DATA  191
scalars raio float
LOOKUP_TABLE default
0.9540771
0.1871146
0.9516721
0.5281806
0.3290094
0.2120927
0.2965293
0.2669235
0.2264173
0.1949622
0.1918011
0.4816475
0.4731193
0.2436430
0.1740723
0.2094507
0.4505193
0.4401679
0.2431453
0.1839778
0.2012210
0.4139007
0.3324532
0.3017006
0.2549107
0.2217073
0.2101634
0.3244764
0.1792199
0.3051195
0.2209333
0.2602261
0.1833058
0.1799872
0.8940184
0.8823294
0.8640972
0.1632520
0.8621505
0.6881100
0.2917848
0.1927128
0.2605367
0.1940960
0.2180883
0.6701573
0.6668297
0.6274902
0.4619146
0.3776013
0.2153649
0.3526342
0.1239338
0.3474559
0.2717434
0.2382903
0.1869702
0.2796938
0.1968096
0.2424792
0.3549421
0.3324325
0.1956035
0.3081248
0.2731967
0.2115128
0.2219106
0.2069492
0.1998284
0.5295689
0.4565365
0.1869228
0.4458429
0.4079230
0.2246452
0.3838166
0.3320441
0.2091890
0.3016752
0.2404991
0.2383710
0.2711386
0.2138459
0.2165429
0.2747665
0.1858445
0.2428662
0.3764774
0.3145852
0.2738928
0.2237471
0.2106351
0.2195714
0.2811666
0.1872455
0.2502001
0.3670308
0.3537419
0.3361043
0.1840550
0.3165958
0.2756270
0.2270286
0.2098256
0.2210000
0.1846573
0.1730078
0.1646193
0.6804254
0.6301270
0.2341242
0.2128454
0.1472191
0.6191637
0.4476579
0.2925777
0.2503611
0.2084512
0.1879107
0.2106881
0.4013795
0.3805216
0.3201208
0.2067806
0.2883039
0.2236523
0.2337776
0.2814430
0.2069302
0.2377118
0.2122817
0.5285463
0.5221145
0.4563864
0.3985304
0.2300597
0.3711354
0.3501633
0.2060308
0.3245613
0.2823308
0.2206990
0.2273738
0.2269187
0.2015356
0.3166940
0.2717142
0.2232952
0.2074414
0.2270356
0.3615728
0.3008329
0.2008673
0.2674053
0.1731973
0.2405861
0.2716436
0.2069895
0.2235796
0.1746259
0.4017100
0.3627993
0.2661473
0.2058169
0.2164005
0.3068798
0.2798199
0.2248689
0.2192463
0.1912094
0.2574879
0.2129943
0.1949452
0.3467942
0.2843583
0.2591789
0.1991359
0.2118896
0.1774019
0.2654969
0.2313590
0.1606677
0.2019514
0.1849896
0.3024360
0.2895804
0.2535890
0.2018201
0.2007244
0.1997969
0.1500707
