# vtk DataFile Version 3.0
vtk output
ASCII
DATASET POLYDATA
POINTS  32  float
0.0000000  0.0500000  0.0000000
0.0123338  -0.0257925  0.0000000
-0.0050136  0.0289633  0.0000000
-0.0452107  0.0037871  0.0000000
-0.0258511  0.0018757  0.0000000
-0.0299338  -0.0305092  0.0000000
-0.0010027  0.0457927  0.0000000
0.0408443  0.0165721  0.0000000
0.0115564  0.0004108  0.0000000
0.0394525  -0.0124345  0.0000000
-0.0005014  0.0478963  0.0000000
-0.0216003  0.0444594  0.0000000
0.0104610  -0.0227794  0.0000000
0.0018921  -0.0495410  0.0000000
-0.0150602  0.0090114  0.0000000
-0.0104088  -0.0067664  0.0000000
0.0106801  -0.0181414  0.0000000
0.0323737  -0.0338711  0.0000000
-0.0070229  0.0249729  0.0000000
-0.0304415  0.0265601  0.0000000
-0.0284946  -0.0286980  0.0000000
-0.0263187  -0.0418534  0.0000000
-0.0294452  -0.0087417  0.0000000
-0.0440185  -0.0148005  0.0000000
0.0106436  -0.0340630  0.0000000
0.0190764  -0.0452627  0.0000000
0.0105048  -0.0218518  0.0000000
-0.0079927  -0.0317658  0.0000000
0.0276251  -0.0034767  0.0000000
0.0389900  0.0024105  0.0000000
0.0052668  0.0079460  0.0000000
-0.0008272  0.0011078  0.0000000

LINES  31  93
2  0  10
2  10  11
2  10  6
2  6  7
2  6  2
2  2  18
2  18  19
2  18  14
2  14  15
2  14  4
2  4  22
2  22  23
2  22  20
2  20  21
2  20  5
2  4  3
2  2  30
2  30  8
2  8  16
2  16  17
2  16  26
2  26  12
2  12  24
2  24  25
2  24  13
2  12  1
2  26  27
2  8  28
2  28  9
2  28  29
2  30  31

CELL_DATA  31
scalars raio float
LOOKUP_TABLE default
0.6875136
0.2222443
0.6796836
0.2774724
0.6639058
0.4941281
0.2413822
0.4741289
0.2377776
0.4532924
0.4206696
0.2728795
0.3782641
0.3494041
0.2255023
0.2654136
0.5561113
0.5469611
0.4953846
0.3049872
0.4533921
0.4068582
0.3922193
0.3017930
0.3202681
0.1913957
0.2956885
0.3477739
0.2810290
0.2708396
0.2028786
