# vtk DataFile Version 3.0
vtk output
ASCII
DATASET POLYDATA
POINTS  224  float
0.0000000  0.0500000  0.0000000
0.0123338  -0.0257925  0.0000000
-0.0050136  0.0289633  0.0000000
-0.0452107  0.0037871  0.0000000
-0.0258511  0.0018757  0.0000000
-0.0299338  -0.0305092  0.0000000
-0.0010027  0.0457927  0.0000000
0.0408443  0.0165721  0.0000000
0.0115564  0.0004108  0.0000000
0.0394525  -0.0124345  0.0000000
-0.0005014  0.0478963  0.0000000
-0.0216003  0.0444594  0.0000000
0.0104610  -0.0227794  0.0000000
0.0018921  -0.0495410  0.0000000
-0.0150602  0.0090114  0.0000000
-0.0104088  -0.0067664  0.0000000
0.0106801  -0.0181414  0.0000000
0.0323737  -0.0338711  0.0000000
-0.0070229  0.0249729  0.0000000
-0.0304415  0.0265601  0.0000000
-0.0284946  -0.0286980  0.0000000
-0.0263187  -0.0418534  0.0000000
-0.0294452  -0.0087417  0.0000000
-0.0440185  -0.0148005  0.0000000
0.0106436  -0.0340630  0.0000000
0.0190764  -0.0452627  0.0000000
0.0105048  -0.0218518  0.0000000
-0.0079927  -0.0317658  0.0000000
0.0276251  -0.0034767  0.0000000
0.0389900  0.0024105  0.0000000
0.0052668  0.0079460  0.0000000
-0.0008272  0.0011078  0.0000000
0.0011546  0.0163529  0.0000000
0.0148390  0.0186285  0.0000000
0.0110306  -0.0107205  0.0000000
-0.0021371  -0.0142825  0.0000000
0.0104669  0.0409941  0.0000000
0.0223765  0.0428442  0.0000000
-0.0262717  0.0235066  0.0000000
-0.0437569  0.0188037  0.0000000
0.0292425  -0.0285059  0.0000000
0.0392129  -0.0259350  0.0000000
-0.0120606  -0.0048665  0.0000000
-0.0131739  -0.0205311  0.0000000
-0.0307922  -0.0192085  0.0000000
-0.0401220  -0.0267633  0.0000000
-0.0260305  -0.0311781  0.0000000
-0.0194967  -0.0313577  0.0000000
0.0116402  0.0160354  0.0000000
0.0254581  0.0118062  0.0000000
-0.0010979  -0.0318126  0.0000000
-0.0072562  -0.0430654  0.0000000
0.0307741  0.0305316  0.0000000
0.0350536  0.0334435  0.0000000
-0.0025463  0.0239191  0.0000000
0.0106352  0.0263337  0.0000000
-0.0228516  0.0222358  0.0000000
-0.0265506  0.0139146  0.0000000
-0.0191267  0.0437290  0.0000000
-0.0298767  0.0360280  0.0000000
0.0333322  -0.0098225  0.0000000
0.0346492  -0.0172274  0.0000000
-0.0134464  -0.0067539  0.0000000
-0.0203047  -0.0107883  0.0000000
0.0019771  0.0146715  0.0000000
-0.0053582  0.0083728  0.0000000
0.0111358  -0.0084942  0.0000000
0.0226280  -0.0138280  0.0000000
0.0383493  0.0013738  0.0000000
0.0480730  0.0056472  0.0000000
0.0323435  0.0244912  0.0000000
0.0306433  0.0186351  0.0000000
0.0201969  0.0328819  0.0000000
0.0222401  0.0220151  0.0000000
0.0028091  -0.0265408  0.0000000
-0.0042356  -0.0225207  0.0000000
-0.0042114  0.0323292  0.0000000
-0.0161247  0.0321827  0.0000000
-0.0395872  -0.0103925  0.0000000
-0.0465657  -0.0078416  0.0000000
0.0363442  0.0174656  0.0000000
0.0352823  0.0114451  0.0000000
0.0317157  0.0269074  0.0000000
0.0403131  0.0256365  0.0000000
0.0188113  -0.0239521  0.0000000
0.0174143  -0.0298426  0.0000000
-0.0246524  -0.0389945  0.0000000
-0.0197843  -0.0450646  0.0000000
0.0387605  -0.0114439  0.0000000
0.0472797  -0.0128777  0.0000000
-0.0326722  0.0231242  0.0000000
-0.0378613  0.0287586  0.0000000
-0.0068430  -0.0418010  0.0000000
-0.0116018  -0.0478224  0.0000000
-0.0202760  0.0238683  0.0000000
-0.0245613  0.0293596  0.0000000
-0.0317291  0.0041057  0.0000000
-0.0325964  0.0094154  0.0000000
-0.0424304  0.0188410  0.0000000
-0.0479366  0.0141764  0.0000000
-0.0035697  0.0350219  0.0000000
0.0034180  0.0323619  0.0000000
0.0012706  0.0011399  0.0000000
-0.0011272  -0.0064847  0.0000000
0.0167597  -0.0394838  0.0000000
0.0241809  -0.0407837  0.0000000
-0.0383555  -0.0223156  0.0000000
-0.0450976  -0.0213634  0.0000000
-0.0294754  -0.0294026  0.0000000
-0.0358843  -0.0346869  0.0000000
0.0344056  -0.0022953  0.0000000
0.0406843  -0.0054259  0.0000000
0.0171851  -0.0227899  0.0000000
0.0246508  -0.0201107  0.0000000
0.0065247  0.0064390  0.0000000
0.0131998  0.0094287  0.0000000
0.0411928  -0.0138699  0.0000000
0.0439256  -0.0207158  0.0000000
0.0244114  -0.0026992  0.0000000
0.0243281  -0.0084037  0.0000000
-0.0303327  -0.0211064  0.0000000
-0.0210859  -0.0221956  0.0000000
0.0107502  -0.0166572  0.0000000
0.0042707  -0.0192495  0.0000000
0.0166984  -0.0008332  0.0000000
0.0201764  0.0047024  0.0000000
0.0201473  0.0026214  0.0000000
0.0261417  0.0057185  0.0000000
-0.0025429  0.0393302  0.0000000
-0.0103610  0.0390260  0.0000000
-0.0276482  -0.0034330  0.0000000
-0.0345449  -0.0037753  0.0000000
-0.0354308  -0.0107159  0.0000000
-0.0376968  -0.0163348  0.0000000
-0.0219127  -0.0230830  0.0000000
-0.0160546  -0.0268916  0.0000000
0.0020277  -0.0275952  0.0000000
-0.0093293  -0.0256896  0.0000000
-0.0058031  -0.0370686  0.0000000
-0.0139882  -0.0359459  0.0000000
-0.0123586  0.0020547  0.0000000
-0.0080530  -0.0003144  0.0000000
0.0113040  -0.0049322  0.0000000
0.0062835  -0.0059420  0.0000000
0.0035851  0.0438732  0.0000000
0.0084035  0.0486344  0.0000000
0.0132139  0.0423858  0.0000000
0.0142375  0.0476106  0.0000000
0.0395721  -0.0037364  0.0000000
0.0470378  -0.0038648  0.0000000
0.0239676  -0.0277874  0.0000000
0.0255181  -0.0334814  0.0000000
0.0394354  0.0251549  0.0000000
0.0445369  0.0224650  0.0000000
-0.0236929  0.0033028  0.0000000
-0.0205981  -0.0047978  0.0000000
-0.0330278  0.0079141  0.0000000
-0.0373528  0.0126425  0.0000000
-0.0066350  -0.0408545  0.0000000
-0.0021477  -0.0455499  0.0000000
0.0244278  0.0319418  0.0000000
0.0271305  0.0377604  0.0000000
-0.0102378  0.0185883  0.0000000
-0.0156663  0.0186094  0.0000000
-0.0405469  0.0020002  0.0000000
-0.0458033  -0.0021554  0.0000000
-0.0093119  -0.0002831  0.0000000
-0.0057637  -0.0043299  0.0000000
-0.0301120  0.0232772  0.0000000
-0.0326173  0.0170371  0.0000000
-0.0299840  -0.0129284  0.0000000
-0.0203405  -0.0167642  0.0000000
-0.0193766  0.0061571  0.0000000
-0.0239186  0.0106633  0.0000000
-0.0339940  -0.0312631  0.0000000
-0.0371873  -0.0299324  0.0000000
0.0438734  0.0053059  0.0000000
0.0475910  0.0117037  0.0000000
-0.0015473  0.0097808  0.0000000
-0.0017014  0.0056866  0.0000000
0.0091349  -0.0402355  0.0000000
0.0123795  -0.0455935  0.0000000
0.0338739  -0.0163987  0.0000000
0.0335434  -0.0220427  0.0000000
0.0007775  -0.0292821  0.0000000
0.0037172  -0.0338930  0.0000000
-0.0122990  0.0006704  0.0000000
-0.0169274  -0.0023024  0.0000000
-0.0440957  0.0036579  0.0000000
-0.0493188  0.0072238  0.0000000
-0.0228095  0.0289585  0.0000000
-0.0239078  0.0342838  0.0000000
-0.0120736  -0.0101348  0.0000000
-0.0078851  -0.0128043  0.0000000
0.0402754  0.0169279  0.0000000
0.0463493  0.0164912  0.0000000
-0.0020390  -0.0328638  0.0000000
0.0014848  -0.0399825  0.0000000
0.0367718  -0.0000939  0.0000000
0.0350284  0.0050042  0.0000000
-0.0040845  0.0082930  0.0000000
-0.0064483  0.0045302  0.0000000
0.0434719  -0.0049874  0.0000000
0.0452451  -0.0087670  0.0000000
0.0143589  0.0377493  0.0000000
0.0109776  0.0313992  0.0000000
0.0256971  0.0316598  0.0000000
0.0270627  0.0256490  0.0000000
0.0130363  0.0329807  0.0000000
0.0147654  0.0289928  0.0000000
0.0455276  -0.0035915  0.0000000
0.0499573  0.0001739  0.0000000
-0.0373541  0.0040231  0.0000000
-0.0415344  0.0096430  0.0000000
0.0326678  -0.0135955  0.0000000
0.0278928  -0.0177853  0.0000000
-0.0006958  0.0201360  0.0000000
-0.0049246  0.0167870  0.0000000
0.0225439  0.0234976  0.0000000
0.0253790  0.0182311  0.0000000
0.0257718  -0.0324208  0.0000000
0.0292887  -0.0390269  0.0000000
-0.0353069  0.0276817  0.0000000
-0.0345693  0.0322536  0.0000000

LINES  223  669
2  0  10
2  10  58
2  58  59
2  58  11
2  10  6
2  6  144
2  144  145
2  144  36
2  36  146
2  146  147
2  146  37
2  36  204
2  204  72
2  72  160
2  160  161
2  160  206
2  206  52
2  52  82
2  82  152
2  152  153
2  152  83
2  82  70
2  70  71
2  70  80
2  80  194
2  194  195
2  194  7
2  80  81
2  52  53
2  206  207
2  72  218
2  218  73
2  218  219
2  204  208
2  208  205
2  208  209
2  6  128
2  128  100
2  100  76
2  76  2
2  2  18
2  18  94
2  94  190
2  190  191
2  190  95
2  94  56
2  56  57
2  56  38
2  38  168
2  168  169
2  168  90
2  90  222
2  222  223
2  222  91
2  90  98
2  98  39
2  98  99
2  38  19
2  18  162
2  162  14
2  14  140
2  140  166
2  166  167
2  166  141
2  140  186
2  186  42
2  42  62
2  62  63
2  62  192
2  192  43
2  192  193
2  42  15
2  186  187
2  14  172
2  172  154
2  154  4
2  4  130
2  130  131
2  130  22
2  22  132
2  132  133
2  132  78
2  78  79
2  78  23
2  22  170
2  170  44
2  44  120
2  120  134
2  134  135
2  134  121
2  120  20
2  20  46
2  46  47
2  46  86
2  86  21
2  86  87
2  20  108
2  108  5
2  108  174
2  174  109
2  174  175
2  44  106
2  106  45
2  106  107
2  170  171
2  4  96
2  96  212
2  212  213
2  212  164
2  164  165
2  164  188
2  188  3
2  188  189
2  96  156
2  156  97
2  156  157
2  154  155
2  172  173
2  162  163
2  2  54
2  54  216
2  216  217
2  216  32
2  32  64
2  64  178
2  178  179
2  178  200
2  200  65
2  200  201
2  64  30
2  30  114
2  114  115
2  114  8
2  8  142
2  142  143
2  142  66
2  66  67
2  66  34
2  34  35
2  34  122
2  122  16
2  16  112
2  112  113
2  112  84
2  84  85
2  84  150
2  150  40
2  40  41
2  40  17
2  150  220
2  220  151
2  220  221
2  16  26
2  26  12
2  12  24
2  24  104
2  104  105
2  104  25
2  24  180
2  180  13
2  180  181
2  12  1
2  26  74
2  74  136
2  136  137
2  136  184
2  184  50
2  50  27
2  50  196
2  196  138
2  138  158
2  158  159
2  158  92
2  92  51
2  92  93
2  138  139
2  196  197
2  184  185
2  74  75
2  122  123
2  8  124
2  124  118
2  118  28
2  28  60
2  60  214
2  214  215
2  214  182
2  182  183
2  182  61
2  60  88
2  88  9
2  88  116
2  116  89
2  116  117
2  28  110
2  110  198
2  198  199
2  198  68
2  68  29
2  68  176
2  176  69
2  176  177
2  110  148
2  148  111
2  148  202
2  202  210
2  210  211
2  210  149
2  202  203
2  118  119
2  124  126
2  126  125
2  126  127
2  30  102
2  102  31
2  102  103
2  32  48
2  48  33
2  48  49
2  54  55
2  76  77
2  100  101
2  128  129

CELL_DATA  223
scalars raio float
LOOKUP_TABLE default
1.1491789
0.2836281
0.2603125
0.1729920
1.1433907
0.5604274
0.1714875
0.5550232
0.2457362
0.1809648
0.2073345
0.5384779
0.5226820
0.4950607
0.1988864
0.4841209
0.4725988
0.4601847
0.3068304
0.2834125
0.1829361
0.4092964
0.2263184
0.3847933
0.3365452
0.3174751
0.1829112
0.2661677
0.2008419
0.1992483
0.2779047
0.1780397
0.2510322
0.2371737
0.1754103
0.1995338
1.0966245
1.0951187
1.0936199
1.0914503
0.8207537
0.4746742
0.2550397
0.2260647
0.1714073
0.4487412
0.2152341
0.4315887
0.4180009
0.2179090
0.3972475
0.2961895
0.2491271
0.2191307
0.3323303
0.2003920
0.3060140
0.1944862
0.7639968
0.7611733
0.4285027
0.2503971
0.2273254
0.1581043
0.3978630
0.3812083
0.3683417
0.2435545
0.3287422
0.2827146
0.2347165
0.1756802
0.1964595
0.7129120
0.7084854
0.7024318
0.6436402
0.2052221
0.6366092
0.3588843
0.2271567
0.3255485
0.2638487
0.2526863
0.5960629
0.5825317
0.5435350
0.3281862
0.3031385
0.1956684
0.5003052
0.4293858
0.2682666
0.3911831
0.2743484
0.3397318
0.3584663
0.1725530
0.3446101
0.2776455
0.2692603
0.3335264
0.2525698
0.2758470
0.2415733
0.4307876
0.3918572
0.2340727
0.3617651
0.2516370
0.3155226
0.1889383
0.2910978
0.2704162
0.1720544
0.2448598
0.2083023
0.1885912
0.1701490
0.9074750
0.9037943
0.1679279
0.9018577
0.8921494
0.2794374
0.1867783
0.2482760
0.1627668
0.2223427
0.8829161
0.8750239
0.1896846
0.8720425
0.7447145
0.1819198
0.7410782
0.2315988
0.7334604
0.2382409
0.7249842
0.7192938
0.4737996
0.2323912
0.4543786
0.2221631
0.4359367
0.3644483
0.3062956
0.2699462
0.3253489
0.1873129
0.3031763
0.6429530
0.4581302
0.4484136
0.3539271
0.2874446
0.2740608
0.3578633
0.3045654
0.2600130
0.1816032
0.5535697
0.5383852
0.2637826
0.5163918
0.5019408
0.2462829
0.4813430
0.4546530
0.4127022
0.2989156
0.3519200
0.2097550
0.3250874
0.2871958
0.2598315
0.2240042
0.2385793
0.2072532
0.6300726
0.6150652
0.6081178
0.4624932
0.3583247
0.2536030
0.3096746
0.2837514
0.1899269
0.3754386
0.1721004
0.3629750
0.2815326
0.2943683
0.5012755
0.3995491
0.2286035
0.3728609
0.1651481
0.3617326
0.2656253
0.3057812
0.3961618
0.1882957
0.3814424
0.3403337
0.3065596
0.2197362
0.2524002
0.1982857
0.2593821
0.1722271
0.2310997
0.2634850
0.1699461
0.2374259
0.2861666
0.1873447
0.2564159
0.2084423
0.1980562
0.1752807
0.1757138
