# vtk DataFile Version 3.0
vtk output
ASCII
DATASET POLYDATA
POINTS  256  float
0.0000000  0.0500000  0.0000000
0.0123338  -0.0257925  0.0000000
-0.0050136  0.0289633  0.0000000
-0.0452107  0.0037871  0.0000000
-0.0258511  0.0018757  0.0000000
-0.0299338  -0.0305092  0.0000000
-0.0010027  0.0457927  0.0000000
0.0408443  0.0165721  0.0000000
0.0115564  0.0004108  0.0000000
0.0394525  -0.0124345  0.0000000
-0.0005014  0.0478963  0.0000000
-0.0216003  0.0444594  0.0000000
0.0104610  -0.0227794  0.0000000
0.0018921  -0.0495410  0.0000000
-0.0150602  0.0090114  0.0000000
-0.0104088  -0.0067664  0.0000000
0.0106801  -0.0181414  0.0000000
0.0323737  -0.0338711  0.0000000
-0.0070229  0.0249729  0.0000000
-0.0304415  0.0265601  0.0000000
-0.0284946  -0.0286980  0.0000000
-0.0263187  -0.0418534  0.0000000
-0.0294452  -0.0087417  0.0000000
-0.0440185  -0.0148005  0.0000000
0.0106436  -0.0340630  0.0000000
0.0190764  -0.0452627  0.0000000
0.0105048  -0.0218518  0.0000000
-0.0079927  -0.0317658  0.0000000
0.0276251  -0.0034767  0.0000000
0.0389900  0.0024105  0.0000000
0.0052668  0.0079460  0.0000000
-0.0008272  0.0011078  0.0000000
0.0011546  0.0163529  0.0000000
0.0148390  0.0186285  0.0000000
0.0110306  -0.0107205  0.0000000
-0.0021371  -0.0142825  0.0000000
0.0104669  0.0409941  0.0000000
0.0223765  0.0428442  0.0000000
-0.0262717  0.0235066  0.0000000
-0.0437569  0.0188037  0.0000000
0.0292425  -0.0285059  0.0000000
0.0392129  -0.0259350  0.0000000
-0.0120606  -0.0048665  0.0000000
-0.0131739  -0.0205311  0.0000000
-0.0307922  -0.0192085  0.0000000
-0.0401220  -0.0267633  0.0000000
-0.0260305  -0.0311781  0.0000000
-0.0194967  -0.0313577  0.0000000
0.0116402  0.0160354  0.0000000
0.0254581  0.0118062  0.0000000
-0.0010979  -0.0318126  0.0000000
-0.0072562  -0.0430654  0.0000000
0.0307741  0.0305316  0.0000000
0.0350536  0.0334435  0.0000000
-0.0025463  0.0239191  0.0000000
0.0106352  0.0263337  0.0000000
-0.0228516  0.0222358  0.0000000
-0.0265506  0.0139146  0.0000000
-0.0191267  0.0437290  0.0000000
-0.0298767  0.0360280  0.0000000
0.0333322  -0.0098225  0.0000000
0.0346492  -0.0172274  0.0000000
-0.0134464  -0.0067539  0.0000000
-0.0203047  -0.0107883  0.0000000
0.0019771  0.0146715  0.0000000
-0.0053582  0.0083728  0.0000000
0.0111358  -0.0084942  0.0000000
0.0226280  -0.0138280  0.0000000
0.0383493  0.0013738  0.0000000
0.0480730  0.0056472  0.0000000
0.0323435  0.0244912  0.0000000
0.0306433  0.0186351  0.0000000
0.0201969  0.0328819  0.0000000
0.0222401  0.0220151  0.0000000
0.0028091  -0.0265408  0.0000000
-0.0042356  -0.0225207  0.0000000
-0.0042114  0.0323292  0.0000000
-0.0161247  0.0321827  0.0000000
-0.0395872  -0.0103925  0.0000000
-0.0465657  -0.0078416  0.0000000
0.0363442  0.0174656  0.0000000
0.0352823  0.0114451  0.0000000
0.0317157  0.0269074  0.0000000
0.0403131  0.0256365  0.0000000
0.0188113  -0.0239521  0.0000000
0.0174143  -0.0298426  0.0000000
-0.0246524  -0.0389945  0.0000000
-0.0197843  -0.0450646  0.0000000
0.0387605  -0.0114439  0.0000000
0.0472797  -0.0128777  0.0000000
-0.0326722  0.0231242  0.0000000
-0.0378613  0.0287586  0.0000000
-0.0068430  -0.0418010  0.0000000
-0.0116018  -0.0478224  0.0000000
-0.0202760  0.0238683  0.0000000
-0.0245613  0.0293596  0.0000000
-0.0317291  0.0041057  0.0000000
-0.0325964  0.0094154  0.0000000
-0.0424304  0.0188410  0.0000000
-0.0479366  0.0141764  0.0000000
-0.0035697  0.0350219  0.0000000
0.0034180  0.0323619  0.0000000
0.0012706  0.0011399  0.0000000
-0.0011272  -0.0064847  0.0000000
0.0167597  -0.0394838  0.0000000
0.0241809  -0.0407837  0.0000000
-0.0383555  -0.0223156  0.0000000
-0.0450976  -0.0213634  0.0000000
-0.0294754  -0.0294026  0.0000000
-0.0358843  -0.0346869  0.0000000
0.0344056  -0.0022953  0.0000000
0.0406843  -0.0054259  0.0000000
0.0171851  -0.0227899  0.0000000
0.0246508  -0.0201107  0.0000000
0.0065247  0.0064390  0.0000000
0.0131998  0.0094287  0.0000000
0.0411928  -0.0138699  0.0000000
0.0439256  -0.0207158  0.0000000
0.0244114  -0.0026992  0.0000000
0.0243281  -0.0084037  0.0000000
-0.0303327  -0.0211064  0.0000000
-0.0210859  -0.0221956  0.0000000
0.0107502  -0.0166572  0.0000000
0.0042707  -0.0192495  0.0000000
0.0166984  -0.0008332  0.0000000
0.0201764  0.0047024  0.0000000
0.0201473  0.0026214  0.0000000
0.0261417  0.0057185  0.0000000
-0.0025429  0.0393302  0.0000000
-0.0103610  0.0390260  0.0000000
-0.0276482  -0.0034330  0.0000000
-0.0345449  -0.0037753  0.0000000
-0.0354308  -0.0107159  0.0000000
-0.0376968  -0.0163348  0.0000000
-0.0219127  -0.0230830  0.0000000
-0.0160546  -0.0268916  0.0000000
0.0020277  -0.0275952  0.0000000
-0.0093293  -0.0256896  0.0000000
-0.0058031  -0.0370686  0.0000000
-0.0139882  -0.0359459  0.0000000
-0.0123586  0.0020547  0.0000000
-0.0080530  -0.0003144  0.0000000
0.0113040  -0.0049322  0.0000000
0.0062835  -0.0059420  0.0000000
0.0035851  0.0438732  0.0000000
0.0084035  0.0486344  0.0000000
0.0132139  0.0423858  0.0000000
0.0142375  0.0476106  0.0000000
0.0395721  -0.0037364  0.0000000
0.0470378  -0.0038648  0.0000000
0.0239676  -0.0277874  0.0000000
0.0255181  -0.0334814  0.0000000
0.0394354  0.0251549  0.0000000
0.0445369  0.0224650  0.0000000
-0.0236929  0.0033028  0.0000000
-0.0205981  -0.0047978  0.0000000
-0.0330278  0.0079141  0.0000000
-0.0373528  0.0126425  0.0000000
-0.0066350  -0.0408545  0.0000000
-0.0021477  -0.0455499  0.0000000
0.0244278  0.0319418  0.0000000
0.0271305  0.0377604  0.0000000
-0.0102378  0.0185883  0.0000000
-0.0156663  0.0186094  0.0000000
-0.0405469  0.0020002  0.0000000
-0.0458033  -0.0021554  0.0000000
-0.0093119  -0.0002831  0.0000000
-0.0057637  -0.0043299  0.0000000
-0.0301120  0.0232772  0.0000000
-0.0326173  0.0170371  0.0000000
-0.0299840  -0.0129284  0.0000000
-0.0203405  -0.0167642  0.0000000
-0.0193766  0.0061571  0.0000000
-0.0239186  0.0106633  0.0000000
-0.0339940  -0.0312631  0.0000000
-0.0371873  -0.0299324  0.0000000
0.0438734  0.0053059  0.0000000
0.0475910  0.0117037  0.0000000
-0.0015473  0.0097808  0.0000000
-0.0017014  0.0056866  0.0000000
0.0091349  -0.0402355  0.0000000
0.0123795  -0.0455935  0.0000000
0.0338739  -0.0163987  0.0000000
0.0335434  -0.0220427  0.0000000
0.0007775  -0.0292821  0.0000000
0.0037172  -0.0338930  0.0000000
-0.0122990  0.0006704  0.0000000
-0.0169274  -0.0023024  0.0000000
-0.0440957  0.0036579  0.0000000
-0.0493188  0.0072238  0.0000000
-0.0228095  0.0289585  0.0000000
-0.0239078  0.0342838  0.0000000
-0.0120736  -0.0101348  0.0000000
-0.0078851  -0.0128043  0.0000000
0.0402754  0.0169279  0.0000000
0.0463493  0.0164912  0.0000000
-0.0020390  -0.0328638  0.0000000
0.0014848  -0.0399825  0.0000000
0.0367718  -0.0000939  0.0000000
0.0350284  0.0050042  0.0000000
-0.0040845  0.0082930  0.0000000
-0.0064483  0.0045302  0.0000000
0.0434719  -0.0049874  0.0000000
0.0452451  -0.0087670  0.0000000
0.0143589  0.0377493  0.0000000
0.0109776  0.0313992  0.0000000
0.0256971  0.0316598  0.0000000
0.0270627  0.0256490  0.0000000
0.0130363  0.0329807  0.0000000
0.0147654  0.0289928  0.0000000
0.0455276  -0.0035915  0.0000000
0.0499573  0.0001739  0.0000000
-0.0373541  0.0040231  0.0000000
-0.0415344  0.0096430  0.0000000
0.0326678  -0.0135955  0.0000000
0.0278928  -0.0177853  0.0000000
-0.0006958  0.0201360  0.0000000
-0.0049246  0.0167870  0.0000000
0.0225439  0.0234976  0.0000000
0.0253790  0.0182311  0.0000000
0.0257718  -0.0324208  0.0000000
0.0292887  -0.0390269  0.0000000
-0.0353069  0.0276817  0.0000000
-0.0345693  0.0322536  0.0000000
-0.0114075  -0.0383597  0.0000000
-0.0151319  -0.0422259  0.0000000
0.0047003  -0.0188729  0.0000000
-0.0003336  -0.0198118  0.0000000
0.0095061  -0.0362417  0.0000000
0.0059858  -0.0376497  0.0000000
0.0303373  -0.0030041  0.0000000
0.0309168  0.0031509  0.0000000
-0.0365774  0.0223394  0.0000000
-0.0412229  0.0251792  0.0000000
0.0320211  -0.0314593  0.0000000
0.0363840  -0.0332109  0.0000000
0.0197836  -0.0015796  0.0000000
0.0199722  -0.0071833  0.0000000
-0.0242195  -0.0352468  0.0000000
-0.0204369  -0.0370579  0.0000000
-0.0287264  -0.0066182  0.0000000
-0.0247046  -0.0110049  0.0000000
0.0241954  -0.0304418  0.0000000
0.0211062  -0.0333732  0.0000000
0.0272293  0.0353107  0.0000000
0.0322721  0.0377359  0.0000000
0.0126904  0.0083258  0.0000000
0.0171963  0.0075738  0.0000000
0.0085374  0.0040277  0.0000000
0.0054017  -0.0002493  0.0000000
-0.0113433  -0.0143100  0.0000000
-0.0080223  -0.0180015  0.0000000
-0.0303792  -0.0297747  0.0000000
-0.0313858  -0.0388414  0.0000000
-0.0415798  -0.0002641  0.0000000
-0.0400324  -0.0036252  0.0000000

LINES  255  765
2  0  10
2  10  58
2  58  59
2  58  11
2  10  6
2  6  144
2  144  145
2  144  36
2  36  146
2  146  147
2  146  37
2  36  204
2  204  72
2  72  160
2  160  244
2  244  245
2  244  161
2  160  206
2  206  52
2  52  82
2  82  152
2  152  153
2  152  83
2  82  70
2  70  71
2  70  80
2  80  194
2  194  195
2  194  7
2  80  81
2  52  53
2  206  207
2  72  218
2  218  73
2  218  219
2  204  208
2  208  205
2  208  209
2  6  128
2  128  100
2  100  76
2  76  2
2  2  18
2  18  94
2  94  190
2  190  191
2  190  95
2  94  56
2  56  57
2  56  38
2  38  168
2  168  169
2  168  90
2  90  222
2  222  223
2  222  91
2  90  232
2  232  98
2  98  39
2  98  99
2  232  233
2  38  19
2  18  162
2  162  14
2  14  140
2  140  166
2  166  167
2  166  141
2  140  186
2  186  42
2  42  62
2  62  63
2  62  192
2  192  250
2  250  251
2  250  43
2  192  193
2  42  15
2  186  187
2  14  172
2  172  154
2  154  4
2  4  130
2  130  131
2  130  240
2  240  22
2  22  132
2  132  133
2  132  78
2  78  79
2  78  23
2  22  170
2  170  44
2  44  120
2  120  134
2  134  135
2  134  121
2  120  20
2  20  46
2  46  47
2  46  238
2  238  86
2  86  21
2  86  87
2  238  239
2  20  108
2  108  5
2  108  252
2  252  174
2  174  109
2  174  175
2  252  253
2  44  106
2  106  45
2  106  107
2  170  171
2  240  241
2  4  96
2  96  212
2  212  213
2  212  164
2  164  254
2  254  255
2  254  165
2  164  188
2  188  3
2  188  189
2  96  156
2  156  97
2  156  157
2  154  155
2  172  173
2  162  163
2  2  54
2  54  216
2  216  217
2  216  32
2  32  64
2  64  178
2  178  179
2  178  200
2  200  65
2  200  201
2  64  30
2  30  114
2  114  246
2  246  247
2  246  115
2  114  248
2  248  8
2  8  142
2  142  143
2  142  66
2  66  67
2  66  34
2  34  35
2  34  122
2  122  16
2  16  112
2  112  113
2  112  84
2  84  85
2  84  150
2  150  40
2  40  41
2  40  234
2  234  17
2  234  235
2  150  242
2  242  220
2  220  151
2  220  221
2  242  243
2  16  26
2  26  12
2  12  24
2  24  104
2  104  105
2  104  25
2  24  228
2  228  180
2  180  13
2  180  181
2  228  229
2  12  1
2  26  74
2  74  136
2  136  137
2  136  184
2  184  50
2  50  27
2  50  196
2  196  138
2  138  158
2  158  159
2  158  92
2  92  51
2  92  93
2  138  224
2  224  139
2  224  225
2  196  197
2  184  185
2  74  75
2  122  226
2  226  123
2  226  227
2  8  124
2  124  236
2  236  237
2  236  118
2  118  28
2  28  60
2  60  214
2  214  215
2  214  182
2  182  183
2  182  61
2  60  88
2  88  9
2  88  116
2  116  89
2  116  117
2  28  230
2  230  110
2  110  198
2  198  199
2  198  68
2  68  29
2  68  176
2  176  69
2  176  177
2  110  148
2  148  111
2  148  202
2  202  210
2  210  211
2  210  149
2  202  203
2  230  231
2  118  119
2  124  126
2  126  125
2  126  127
2  248  249
2  30  102
2  102  31
2  102  103
2  32  48
2  48  33
2  48  49
2  54  55
2  76  77
2  100  101
2  128  129

CELL_DATA  255
scalars raio float
LOOKUP_TABLE default
1.1929670
0.2836103
0.2602961
0.1729811
1.1875999
0.5700826
0.1714295
0.5648677
0.2455757
0.1808466
0.2071992
0.5489517
0.5338179
0.5075018
0.2596741
0.2249363
0.1830054
0.4837456
0.4722324
0.4598279
0.3065925
0.2831928
0.1827943
0.4089791
0.2261430
0.3844949
0.3362843
0.3172290
0.1827694
0.2659613
0.2006862
0.1990938
0.2776610
0.1778835
0.2508120
0.2369750
0.1752633
0.1993666
1.1420906
1.1407038
1.1393245
1.1373292
0.8546985
0.4895100
0.2541182
0.2252479
0.1707880
0.4655263
0.2142742
0.4498738
0.4376348
0.2163873
0.4192383
0.2938837
0.2471877
0.2174247
0.3641887
0.3309900
0.1995838
0.3047799
0.2292108
0.1933721
0.7974235
0.7948454
0.4486425
0.2482974
0.2254192
0.1567785
0.4217067
0.4074334
0.3968351
0.2385047
0.3657453
0.3335756
0.2556436
0.2732868
0.2277137
0.1726004
0.1945188
0.7440201
0.7399978
0.7345158
0.6735344
0.2043265
0.6672071
0.6611046
0.3570639
0.2260045
0.3238973
0.2625103
0.2514046
0.6243829
0.6123210
0.5783126
0.3250517
0.3002432
0.1937996
0.5418291
0.4544944
0.2634648
0.4228279
0.3877808
0.2719623
0.3367770
0.2585448
0.4024573
0.1680977
0.3924346
0.3338516
0.2689776
0.2608542
0.2853185
0.3307051
0.2504333
0.2735136
0.2400716
0.2006274
0.4493540
0.4147297
0.2319027
0.3889966
0.3060484
0.2359378
0.2495048
0.3113989
0.1864690
0.2872934
0.2686967
0.1709603
0.2433027
0.2075394
0.1879907
0.1698736
0.9460743
0.9426970
0.1677915
0.9409218
0.9320377
0.2791912
0.1866137
0.2480573
0.1626234
0.2221468
0.9236112
0.9164254
0.2432677
0.2190162
0.1572793
0.9106754
0.9084537
0.7841838
0.1816682
0.7809203
0.2312138
0.7741047
0.2378034
0.7665507
0.7556136
0.5142885
0.2308218
0.4982978
0.2203621
0.4834973
0.4049918
0.3001801
0.3402116
0.2462613
0.2902138
0.3598583
0.3225082
0.1856775
0.3005292
0.2354727
0.6659889
0.4762179
0.4673226
0.3551838
0.2884653
0.2750340
0.3854128
0.3617493
0.3078727
0.2628365
0.2148018
0.1811003
0.5722504
0.5583462
0.2619815
0.5384176
0.5255020
0.2436755
0.5074222
0.4844905
0.4045092
0.2929815
0.3449336
0.2055910
0.3186338
0.3622494
0.2717613
0.3017136
0.2567482
0.2221628
0.2371095
0.2668685
0.1454243
0.2516193
0.6443347
0.6300225
0.1913051
0.6240872
0.6173332
0.4628279
0.3585840
0.2537866
0.3098988
0.2839568
0.1900644
0.3757103
0.1722250
0.3632377
0.2817364
0.2945813
0.5144121
0.5018914
0.4000400
0.2288844
0.3733190
0.1653510
0.3621770
0.2659517
0.3061569
0.3966485
0.1885270
0.3819110
0.3407518
0.3069362
0.2200061
0.2527103
0.2132649
0.1983756
0.2592923
0.1721674
0.2310197
0.1766690
0.2632673
0.1698056
0.2372297
0.2859195
0.1871830
0.2561945
0.2082875
0.1979494
0.1752007
0.1756571
