# vtk DataFile Version 3.0
vtk output
ASCII
DATASET POLYDATA
POINTS  96  float
0.0000000  0.0500000  0.0000000
0.0123338  -0.0257925  0.0000000
-0.0050136  0.0289633  0.0000000
-0.0452107  0.0037871  0.0000000
-0.0258511  0.0018757  0.0000000
-0.0299338  -0.0305092  0.0000000
-0.0010027  0.0457927  0.0000000
0.0408443  0.0165721  0.0000000
0.0115564  0.0004108  0.0000000
0.0394525  -0.0124345  0.0000000
-0.0005014  0.0478963  0.0000000
-0.0216003  0.0444594  0.0000000
0.0104610  -0.0227794  0.0000000
0.0018921  -0.0495410  0.0000000
-0.0150602  0.0090114  0.0000000
-0.0104088  -0.0067664  0.0000000
0.0106801  -0.0181414  0.0000000
0.0323737  -0.0338711  0.0000000
-0.0070229  0.0249729  0.0000000
-0.0304415  0.0265601  0.0000000
-0.0284946  -0.0286980  0.0000000
-0.0263187  -0.0418534  0.0000000
-0.0294452  -0.0087417  0.0000000
-0.0440185  -0.0148005  0.0000000
0.0106436  -0.0340630  0.0000000
0.0190764  -0.0452627  0.0000000
0.0105048  -0.0218518  0.0000000
-0.0079927  -0.0317658  0.0000000
0.0276251  -0.0034767  0.0000000
0.0389900  0.0024105  0.0000000
0.0052668  0.0079460  0.0000000
-0.0008272  0.0011078  0.0000000
0.0011546  0.0163529  0.0000000
0.0148390  0.0186285  0.0000000
0.0110306  -0.0107205  0.0000000
-0.0021371  -0.0142825  0.0000000
0.0104669  0.0409941  0.0000000
0.0223765  0.0428442  0.0000000
-0.0262717  0.0235066  0.0000000
-0.0437569  0.0188037  0.0000000
0.0292425  -0.0285059  0.0000000
0.0392129  -0.0259350  0.0000000
-0.0120606  -0.0048665  0.0000000
-0.0131739  -0.0205311  0.0000000
-0.0307922  -0.0192085  0.0000000
-0.0401220  -0.0267633  0.0000000
-0.0260305  -0.0311781  0.0000000
-0.0194967  -0.0313577  0.0000000
0.0116402  0.0160354  0.0000000
0.0254581  0.0118062  0.0000000
-0.0010979  -0.0318126  0.0000000
-0.0072562  -0.0430654  0.0000000
0.0307741  0.0305316  0.0000000
0.0350536  0.0334435  0.0000000
-0.0025463  0.0239191  0.0000000
0.0106352  0.0263337  0.0000000
-0.0228516  0.0222358  0.0000000
-0.0265506  0.0139146  0.0000000
-0.0191267  0.0437290  0.0000000
-0.0298767  0.0360280  0.0000000
0.0333322  -0.0098225  0.0000000
0.0346492  -0.0172274  0.0000000
-0.0134464  -0.0067539  0.0000000
-0.0203047  -0.0107883  0.0000000
0.0019771  0.0146715  0.0000000
-0.0053582  0.0083728  0.0000000
0.0111358  -0.0084942  0.0000000
0.0226280  -0.0138280  0.0000000
0.0383493  0.0013738  0.0000000
0.0480730  0.0056472  0.0000000
0.0323435  0.0244912  0.0000000
0.0306433  0.0186351  0.0000000
0.0201969  0.0328819  0.0000000
0.0222401  0.0220151  0.0000000
0.0028091  -0.0265408  0.0000000
-0.0042356  -0.0225207  0.0000000
-0.0042114  0.0323292  0.0000000
-0.0161247  0.0321827  0.0000000
-0.0395872  -0.0103925  0.0000000
-0.0465657  -0.0078416  0.0000000
0.0363442  0.0174656  0.0000000
0.0352823  0.0114451  0.0000000
0.0317157  0.0269074  0.0000000
0.0403131  0.0256365  0.0000000
0.0188113  -0.0239521  0.0000000
0.0174143  -0.0298426  0.0000000
-0.0246524  -0.0389945  0.0000000
-0.0197843  -0.0450646  0.0000000
0.0387605  -0.0114439  0.0000000
0.0472797  -0.0128777  0.0000000
-0.0326722  0.0231242  0.0000000
-0.0378613  0.0287586  0.0000000
-0.0068430  -0.0418010  0.0000000
-0.0116018  -0.0478224  0.0000000
-0.0202760  0.0238683  0.0000000
-0.0245613  0.0293596  0.0000000

LINES  95  285
2  0  10
2  10  58
2  58  59
2  58  11
2  10  6
2  6  36
2  36  37
2  36  72
2  72  52
2  52  82
2  82  83
2  82  70
2  70  71
2  70  80
2  80  7
2  80  81
2  52  53
2  72  73
2  6  76
2  76  2
2  2  18
2  18  94
2  94  95
2  94  56
2  56  57
2  56  38
2  38  90
2  90  91
2  90  39
2  38  19
2  18  14
2  14  42
2  42  62
2  62  63
2  62  43
2  42  15
2  14  4
2  4  22
2  22  78
2  78  79
2  78  23
2  22  44
2  44  20
2  20  46
2  46  47
2  46  86
2  86  21
2  86  87
2  20  5
2  44  45
2  4  3
2  2  54
2  54  32
2  32  64
2  64  65
2  64  30
2  30  8
2  8  66
2  66  67
2  66  34
2  34  35
2  34  16
2  16  84
2  84  85
2  84  40
2  40  41
2  40  17
2  16  26
2  26  12
2  12  24
2  24  25
2  24  13
2  12  1
2  26  74
2  74  50
2  50  27
2  50  92
2  92  51
2  92  93
2  74  75
2  8  28
2  28  60
2  60  61
2  60  88
2  88  9
2  88  89
2  28  68
2  68  29
2  68  69
2  30  31
2  32  48
2  48  33
2  48  49
2  54  55
2  76  77

CELL_DATA  95
scalars raio float
LOOKUP_TABLE default
0.9201691
0.2836759
0.2603563
0.1730211
0.9110929
0.4577605
0.2063609
0.4433311
0.4243506
0.4080951
0.2436093
0.3768242
0.2322399
0.3447706
0.2634914
0.2830956
0.2036774
0.2204889
0.8708206
0.8673742
0.6469473
0.3980669
0.1994590
0.3806207
0.2209680
0.3539742
0.3306390
0.2472547
0.2760250
0.2017021
0.5922117
0.3490319
0.3332238
0.2452065
0.2812916
0.1767278
0.5486768
0.5286714
0.3269740
0.2650040
0.2537928
0.4831773
0.4540559
0.4405290
0.2752285
0.4013348
0.2814681
0.3485483
0.2009918
0.2677337
0.2592132
0.7254478
0.7196111
0.7039762
0.1986660
0.6986622
0.6930943
0.6214899
0.2343435
0.6101790
0.2412922
0.5973329
0.3988504
0.2276041
0.3724336
0.3130067
0.2758608
0.5309542
0.3942626
0.3800769
0.2924500
0.3103532
0.1854704
0.4454642
0.4187435
0.2579332
0.3831885
0.2283921
0.3539719
0.2464685
0.4529002
0.3812616
0.2563486
0.3378833
0.1929245
0.3154629
0.3346507
0.1834328
0.3151677
0.2007369
0.2875063
0.1882218
0.2576163
0.2090911
0.1984000
