# vtk DataFile Version 3.0
vtk output
ASCII
DATASET POLYDATA
POINTS  192  float
0.0000000  0.0500000  0.0000000
0.0123338  -0.0257925  0.0000000
-0.0050136  0.0289633  0.0000000
-0.0452107  0.0037871  0.0000000
-0.0258511  0.0018757  0.0000000
-0.0299338  -0.0305092  0.0000000
-0.0010027  0.0457927  0.0000000
0.0408443  0.0165721  0.0000000
0.0115564  0.0004108  0.0000000
0.0394525  -0.0124345  0.0000000
-0.0005014  0.0478963  0.0000000
-0.0216003  0.0444594  0.0000000
0.0104610  -0.0227794  0.0000000
0.0018921  -0.0495410  0.0000000
-0.0150602  0.0090114  0.0000000
-0.0104088  -0.0067664  0.0000000
0.0106801  -0.0181414  0.0000000
0.0323737  -0.0338711  0.0000000
-0.0070229  0.0249729  0.0000000
-0.0304415  0.0265601  0.0000000
-0.0284946  -0.0286980  0.0000000
-0.0263187  -0.0418534  0.0000000
-0.0294452  -0.0087417  0.0000000
-0.0440185  -0.0148005  0.0000000
0.0106436  -0.0340630  0.0000000
0.0190764  -0.0452627  0.0000000
0.0105048  -0.0218518  0.0000000
-0.0079927  -0.0317658  0.0000000
0.0276251  -0.0034767  0.0000000
0.0389900  0.0024105  0.0000000
0.0052668  0.0079460  0.0000000
-0.0008272  0.0011078  0.0000000
0.0011546  0.0163529  0.0000000
0.0148390  0.0186285  0.0000000
0.0110306  -0.0107205  0.0000000
-0.0021371  -0.0142825  0.0000000
0.0104669  0.0409941  0.0000000
0.0223765  0.0428442  0.0000000
-0.0262717  0.0235066  0.0000000
-0.0437569  0.0188037  0.0000000
0.0292425  -0.0285059  0.0000000
0.0392129  -0.0259350  0.0000000
-0.0120606  -0.0048665  0.0000000
-0.0131739  -0.0205311  0.0000000
-0.0307922  -0.0192085  0.0000000
-0.0401220  -0.0267633  0.0000000
-0.0260305  -0.0311781  0.0000000
-0.0194967  -0.0313577  0.0000000
0.0116402  0.0160354  0.0000000
0.0254581  0.0118062  0.0000000
-0.0010979  -0.0318126  0.0000000
-0.0072562  -0.0430654  0.0000000
0.0307741  0.0305316  0.0000000
0.0350536  0.0334435  0.0000000
-0.0025463  0.0239191  0.0000000
0.0106352  0.0263337  0.0000000
-0.0228516  0.0222358  0.0000000
-0.0265506  0.0139146  0.0000000
-0.0191267  0.0437290  0.0000000
-0.0298767  0.0360280  0.0000000
0.0333322  -0.0098225  0.0000000
0.0346492  -0.0172274  0.0000000
-0.0134464  -0.0067539  0.0000000
-0.0203047  -0.0107883  0.0000000
0.0019771  0.0146715  0.0000000
-0.0053582  0.0083728  0.0000000
0.0111358  -0.0084942  0.0000000
0.0226280  -0.0138280  0.0000000
0.0383493  0.0013738  0.0000000
0.0480730  0.0056472  0.0000000
0.0323435  0.0244912  0.0000000
0.0306433  0.0186351  0.0000000
0.0201969  0.0328819  0.0000000
0.0222401  0.0220151  0.0000000
0.0028091  -0.0265408  0.0000000
-0.0042356  -0.0225207  0.0000000
-0.0042114  0.0323292  0.0000000
-0.0161247  0.0321827  0.0000000
-0.0395872  -0.0103925  0.0000000
-0.0465657  -0.0078416  0.0000000
0.0363442  0.0174656  0.0000000
0.0352823  0.0114451  0.0000000
0.0317157  0.0269074  0.0000000
0.0403131  0.0256365  0.0000000
0.0188113  -0.0239521  0.0000000
0.0174143  -0.0298426  0.0000000
-0.0246524  -0.0389945  0.0000000
-0.0197843  -0.0450646  0.0000000
0.0387605  -0.0114439  0.0000000
0.0472797  -0.0128777  0.0000000
-0.0326722  0.0231242  0.0000000
-0.0378613  0.0287586  0.0000000
-0.0068430  -0.0418010  0.0000000
-0.0116018  -0.0478224  0.0000000
-0.0202760  0.0238683  0.0000000
-0.0245613  0.0293596  0.0000000
-0.0317291  0.0041057  0.0000000
-0.0325964  0.0094154  0.0000000
-0.0424304  0.0188410  0.0000000
-0.0479366  0.0141764  0.0000000
-0.0035697  0.0350219  0.0000000
0.0034180  0.0323619  0.0000000
0.0012706  0.0011399  0.0000000
-0.0011272  -0.0064847  0.0000000
0.0167597  -0.0394838  0.0000000
0.0241809  -0.0407837  0.0000000
-0.0383555  -0.0223156  0.0000000
-0.0450976  -0.0213634  0.0000000
-0.0294754  -0.0294026  0.0000000
-0.0358843  -0.0346869  0.0000000
0.0344056  -0.0022953  0.0000000
0.0406843  -0.0054259  0.0000000
0.0171851  -0.0227899  0.0000000
0.0246508  -0.0201107  0.0000000
0.0065247  0.0064390  0.0000000
0.0131998  0.0094287  0.0000000
0.0411928  -0.0138699  0.0000000
0.0439256  -0.0207158  0.0000000
0.0244114  -0.0026992  0.0000000
0.0243281  -0.0084037  0.0000000
-0.0303327  -0.0211064  0.0000000
-0.0210859  -0.0221956  0.0000000
0.0107502  -0.0166572  0.0000000
0.0042707  -0.0192495  0.0000000
0.0166984  -0.0008332  0.0000000
0.0201764  0.0047024  0.0000000
0.0201473  0.0026214  0.0000000
0.0261417  0.0057185  0.0000000
-0.0025429  0.0393302  0.0000000
-0.0103610  0.0390260  0.0000000
-0.0276482  -0.0034330  0.0000000
-0.0345449  -0.0037753  0.0000000
-0.0354308  -0.0107159  0.0000000
-0.0376968  -0.0163348  0.0000000
-0.0219127  -0.0230830  0.0000000
-0.0160546  -0.0268916  0.0000000
0.0020277  -0.0275952  0.0000000
-0.0093293  -0.0256896  0.0000000
-0.0058031  -0.0370686  0.0000000
-0.0139882  -0.0359459  0.0000000
-0.0123586  0.0020547  0.0000000
-0.0080530  -0.0003144  0.0000000
0.0113040  -0.0049322  0.0000000
0.0062835  -0.0059420  0.0000000
0.0035851  0.0438732  0.0000000
0.0084035  0.0486344  0.0000000
0.0132139  0.0423858  0.0000000
0.0142375  0.0476106  0.0000000
0.0395721  -0.0037364  0.0000000
0.0470378  -0.0038648  0.0000000
0.0239676  -0.0277874  0.0000000
0.0255181  -0.0334814  0.0000000
0.0394354  0.0251549  0.0000000
0.0445369  0.0224650  0.0000000
-0.0236929  0.0033028  0.0000000
-0.0205981  -0.0047978  0.0000000
-0.0330278  0.0079141  0.0000000
-0.0373528  0.0126425  0.0000000
-0.0066350  -0.0408545  0.0000000
-0.0021477  -0.0455499  0.0000000
0.0244278  0.0319418  0.0000000
0.0271305  0.0377604  0.0000000
-0.0102378  0.0185883  0.0000000
-0.0156663  0.0186094  0.0000000
-0.0405469  0.0020002  0.0000000
-0.0458033  -0.0021554  0.0000000
-0.0093119  -0.0002831  0.0000000
-0.0057637  -0.0043299  0.0000000
-0.0301120  0.0232772  0.0000000
-0.0326173  0.0170371  0.0000000
-0.0299840  -0.0129284  0.0000000
-0.0203405  -0.0167642  0.0000000
-0.0193766  0.0061571  0.0000000
-0.0239186  0.0106633  0.0000000
-0.0339940  -0.0312631  0.0000000
-0.0371873  -0.0299324  0.0000000
0.0438734  0.0053059  0.0000000
0.0475910  0.0117037  0.0000000
-0.0015473  0.0097808  0.0000000
-0.0017014  0.0056866  0.0000000
0.0091349  -0.0402355  0.0000000
0.0123795  -0.0455935  0.0000000
0.0338739  -0.0163987  0.0000000
0.0335434  -0.0220427  0.0000000
0.0007775  -0.0292821  0.0000000
0.0037172  -0.0338930  0.0000000
-0.0122990  0.0006704  0.0000000
-0.0169274  -0.0023024  0.0000000
-0.0440957  0.0036579  0.0000000
-0.0493188  0.0072238  0.0000000
-0.0228095  0.0289585  0.0000000
-0.0239078  0.0342838  0.0000000

LINES  191  573
2  0  10
2  10  58
2  58  59
2  58  11
2  10  6
2  6  144
2  144  145
2  144  36
2  36  146
2  146  147
2  146  37
2  36  72
2  72  160
2  160  161
2  160  52
2  52  82
2  82  152
2  152  153
2  152  83
2  82  70
2  70  71
2  70  80
2  80  7
2  80  81
2  52  53
2  72  73
2  6  128
2  128  100
2  100  76
2  76  2
2  2  18
2  18  94
2  94  190
2  190  191
2  190  95
2  94  56
2  56  57
2  56  38
2  38  168
2  168  169
2  168  90
2  90  91
2  90  98
2  98  39
2  98  99
2  38  19
2  18  162
2  162  14
2  14  140
2  140  166
2  166  167
2  166  141
2  140  186
2  186  42
2  42  62
2  62  63
2  62  43
2  42  15
2  186  187
2  14  172
2  172  154
2  154  4
2  4  130
2  130  131
2  130  22
2  22  132
2  132  133
2  132  78
2  78  79
2  78  23
2  22  170
2  170  44
2  44  120
2  120  134
2  134  135
2  134  121
2  120  20
2  20  46
2  46  47
2  46  86
2  86  21
2  86  87
2  20  108
2  108  5
2  108  174
2  174  109
2  174  175
2  44  106
2  106  45
2  106  107
2  170  171
2  4  96
2  96  164
2  164  165
2  164  188
2  188  3
2  188  189
2  96  156
2  156  97
2  156  157
2  154  155
2  172  173
2  162  163
2  2  54
2  54  32
2  32  64
2  64  178
2  178  179
2  178  65
2  64  30
2  30  114
2  114  115
2  114  8
2  8  142
2  142  143
2  142  66
2  66  67
2  66  34
2  34  35
2  34  122
2  122  16
2  16  112
2  112  113
2  112  84
2  84  85
2  84  150
2  150  40
2  40  41
2  40  17
2  150  151
2  16  26
2  26  12
2  12  24
2  24  104
2  104  105
2  104  25
2  24  180
2  180  13
2  180  181
2  12  1
2  26  74
2  74  136
2  136  137
2  136  184
2  184  50
2  50  27
2  50  138
2  138  158
2  158  159
2  158  92
2  92  51
2  92  93
2  138  139
2  184  185
2  74  75
2  122  123
2  8  124
2  124  118
2  118  28
2  28  60
2  60  182
2  182  183
2  182  61
2  60  88
2  88  9
2  88  116
2  116  89
2  116  117
2  28  110
2  110  68
2  68  29
2  68  176
2  176  69
2  176  177
2  110  148
2  148  111
2  148  149
2  118  119
2  124  126
2  126  125
2  126  127
2  30  102
2  102  31
2  102  103
2  32  48
2  48  33
2  48  49
2  54  55
2  76  77
2  100  101
2  128  129

CELL_DATA  191
scalars raio float
LOOKUP_TABLE default
1.1035781
0.2836369
0.2603205
0.1729974
1.0972970
0.5060886
0.1716488
0.4994192
0.2461942
0.1813020
0.2077209
0.4786226
0.4624726
0.2000013
0.4496522
0.4354415
0.3111412
0.2873943
0.1855062
0.3743070
0.2306885
0.3424675
0.2617312
0.2812045
0.2028761
0.2205542
1.0601703
1.0585579
1.0569520
1.0546262
0.8037530
0.4579109
0.2560881
0.2269940
0.1721119
0.4294843
0.2163772
0.4103362
0.3948835
0.2198567
0.3707173
0.2359695
0.3356333
0.2023837
0.3090555
0.1958767
0.7507984
0.7478683
0.4069538
0.2520319
0.2288095
0.1591365
0.3717789
0.3520194
0.3360760
0.2473053
0.2836993
0.1782404
0.1980279
0.7053278
0.7007923
0.6945861
0.6442280
0.2054095
0.6371906
0.3592121
0.2273641
0.3258459
0.2640896
0.2529171
0.5966073
0.5830637
0.5440314
0.3284859
0.3034154
0.1958471
0.5007621
0.4297780
0.2685116
0.3915403
0.2745990
0.3400421
0.3587937
0.1727105
0.3449248
0.2778991
0.2695062
0.3338311
0.2528005
0.2760990
0.2417939
0.4076231
0.3626234
0.2522340
0.3162712
0.1893866
0.2917884
0.2716489
0.1728387
0.2459760
0.2084931
0.1887605
0.1702635
0.8679036
0.8638702
0.8532433
0.2439605
0.1938355
0.1934271
0.8465428
0.8379040
0.1900313
0.8346331
0.7269106
0.1824574
0.7230584
0.2323530
0.7149704
0.2390647
0.7059476
0.6998680
0.4481511
0.2345901
0.4256094
0.2246858
0.4036200
0.3711366
0.3119167
0.2749002
0.2445884
0.6323033
0.4601658
0.4504060
0.3554997
0.2887219
0.2752786
0.3594534
0.3059187
0.2611684
0.1824101
0.5375821
0.5211397
0.2654240
0.4970971
0.4811161
0.2480938
0.4580365
0.4157735
0.3011401
0.3545389
0.2113160
0.3275067
0.2893331
0.2255229
0.2399988
0.2080964
0.5821767
0.5642391
0.5557655
0.4424260
0.3162175
0.2897466
0.1939397
0.3802517
0.1743067
0.3676283
0.2851419
0.2981421
0.4397889
0.3790880
0.1679062
0.3677738
0.2700615
0.3108879
0.3127251
0.2028670
0.2811962
0.1997676
0.2605245
0.1729856
0.2321176
0.2639235
0.1702289
0.2378210
0.2864338
0.1875197
0.2566554
0.2085631
0.1981285
0.1753342
0.1757502
