# vtk DataFile Version 3.0
vtk output
ASCII
DATASET POLYDATA
POINTS  160  float
0.0000000  0.0500000  0.0000000
0.0123338  -0.0257925  0.0000000
-0.0050136  0.0289633  0.0000000
-0.0452107  0.0037871  0.0000000
-0.0258511  0.0018757  0.0000000
-0.0299338  -0.0305092  0.0000000
-0.0010027  0.0457927  0.0000000
0.0408443  0.0165721  0.0000000
0.0115564  0.0004108  0.0000000
0.0394525  -0.0124345  0.0000000
-0.0005014  0.0478963  0.0000000
-0.0216003  0.0444594  0.0000000
0.0104610  -0.0227794  0.0000000
0.0018921  -0.0495410  0.0000000
-0.0150602  0.0090114  0.0000000
-0.0104088  -0.0067664  0.0000000
0.0106801  -0.0181414  0.0000000
0.0323737  -0.0338711  0.0000000
-0.0070229  0.0249729  0.0000000
-0.0304415  0.0265601  0.0000000
-0.0284946  -0.0286980  0.0000000
-0.0263187  -0.0418534  0.0000000
-0.0294452  -0.0087417  0.0000000
-0.0440185  -0.0148005  0.0000000
0.0106436  -0.0340630  0.0000000
0.0190764  -0.0452627  0.0000000
0.0105048  -0.0218518  0.0000000
-0.0079927  -0.0317658  0.0000000
0.0276251  -0.0034767  0.0000000
0.0389900  0.0024105  0.0000000
0.0052668  0.0079460  0.0000000
-0.0008272  0.0011078  0.0000000
0.0011546  0.0163529  0.0000000
0.0148390  0.0186285  0.0000000
0.0110306  -0.0107205  0.0000000
-0.0021371  -0.0142825  0.0000000
0.0104669  0.0409941  0.0000000
0.0223765  0.0428442  0.0000000
-0.0262717  0.0235066  0.0000000
-0.0437569  0.0188037  0.0000000
0.0292425  -0.0285059  0.0000000
0.0392129  -0.0259350  0.0000000
-0.0120606  -0.0048665  0.0000000
-0.0131739  -0.0205311  0.0000000
-0.0307922  -0.0192085  0.0000000
-0.0401220  -0.0267633  0.0000000
-0.0260305  -0.0311781  0.0000000
-0.0194967  -0.0313577  0.0000000
0.0116402  0.0160354  0.0000000
0.0254581  0.0118062  0.0000000
-0.0010979  -0.0318126  0.0000000
-0.0072562  -0.0430654  0.0000000
0.0307741  0.0305316  0.0000000
0.0350536  0.0334435  0.0000000
-0.0025463  0.0239191  0.0000000
0.0106352  0.0263337  0.0000000
-0.0228516  0.0222358  0.0000000
-0.0265506  0.0139146  0.0000000
-0.0191267  0.0437290  0.0000000
-0.0298767  0.0360280  0.0000000
0.0333322  -0.0098225  0.0000000
0.0346492  -0.0172274  0.0000000
-0.0134464  -0.0067539  0.0000000
-0.0203047  -0.0107883  0.0000000
0.0019771  0.0146715  0.0000000
-0.0053582  0.0083728  0.0000000
0.0111358  -0.0084942  0.0000000
0.0226280  -0.0138280  0.0000000
0.0383493  0.0013738  0.0000000
0.0480730  0.0056472  0.0000000
0.0323435  0.0244912  0.0000000
0.0306433  0.0186351  0.0000000
0.0201969  0.0328819  0.0000000
0.0222401  0.0220151  0.0000000
0.0028091  -0.0265408  0.0000000
-0.0042356  -0.0225207  0.0000000
-0.0042114  0.0323292  0.0000000
-0.0161247  0.0321827  0.0000000
-0.0395872  -0.0103925  0.0000000
-0.0465657  -0.0078416  0.0000000
0.0363442  0.0174656  0.0000000
0.0352823  0.0114451  0.0000000
0.0317157  0.0269074  0.0000000
0.0403131  0.0256365  0.0000000
0.0188113  -0.0239521  0.0000000
0.0174143  -0.0298426  0.0000000
-0.0246524  -0.0389945  0.0000000
-0.0197843  -0.0450646  0.0000000
0.0387605  -0.0114439  0.0000000
0.0472797  -0.0128777  0.0000000
-0.0326722  0.0231242  0.0000000
-0.0378613  0.0287586  0.0000000
-0.0068430  -0.0418010  0.0000000
-0.0116018  -0.0478224  0.0000000
-0.0202760  0.0238683  0.0000000
-0.0245613  0.0293596  0.0000000
-0.0317291  0.0041057  0.0000000
-0.0325964  0.0094154  0.0000000
-0.0424304  0.0188410  0.0000000
-0.0479366  0.0141764  0.0000000
-0.0035697  0.0350219  0.0000000
0.0034180  0.0323619  0.0000000
0.0012706  0.0011399  0.0000000
-0.0011272  -0.0064847  0.0000000
0.0167597  -0.0394838  0.0000000
0.0241809  -0.0407837  0.0000000
-0.0383555  -0.0223156  0.0000000
-0.0450976  -0.0213634  0.0000000
-0.0294754  -0.0294026  0.0000000
-0.0358843  -0.0346869  0.0000000
0.0344056  -0.0022953  0.0000000
0.0406843  -0.0054259  0.0000000
0.0171851  -0.0227899  0.0000000
0.0246508  -0.0201107  0.0000000
0.0065247  0.0064390  0.0000000
0.0131998  0.0094287  0.0000000
0.0411928  -0.0138699  0.0000000
0.0439256  -0.0207158  0.0000000
0.0244114  -0.0026992  0.0000000
0.0243281  -0.0084037  0.0000000
-0.0303327  -0.0211064  0.0000000
-0.0210859  -0.0221956  0.0000000
0.0107502  -0.0166572  0.0000000
0.0042707  -0.0192495  0.0000000
0.0166984  -0.0008332  0.0000000
0.0201764  0.0047024  0.0000000
0.0201473  0.0026214  0.0000000
0.0261417  0.0057185  0.0000000
-0.0025429  0.0393302  0.0000000
-0.0103610  0.0390260  0.0000000
-0.0276482  -0.0034330  0.0000000
-0.0345449  -0.0037753  0.0000000
-0.0354308  -0.0107159  0.0000000
-0.0376968  -0.0163348  0.0000000
-0.0219127  -0.0230830  0.0000000
-0.0160546  -0.0268916  0.0000000
0.0020277  -0.0275952  0.0000000
-0.0093293  -0.0256896  0.0000000
-0.0058031  -0.0370686  0.0000000
-0.0139882  -0.0359459  0.0000000
-0.0123586  0.0020547  0.0000000
-0.0080530  -0.0003144  0.0000000
0.0113040  -0.0049322  0.0000000
0.0062835  -0.0059420  0.0000000
0.0035851  0.0438732  0.0000000
0.0084035  0.0486344  0.0000000
0.0132139  0.0423858  0.0000000
0.0142375  0.0476106  0.0000000
0.0395721  -0.0037364  0.0000000
0.0470378  -0.0038648  0.0000000
0.0239676  -0.0277874  0.0000000
0.0255181  -0.0334814  0.0000000
0.0394354  0.0251549  0.0000000
0.0445369  0.0224650  0.0000000
-0.0236929  0.0033028  0.0000000
-0.0205981  -0.0047978  0.0000000
-0.0330278  0.0079141  0.0000000
-0.0373528  0.0126425  0.0000000
-0.0066350  -0.0408545  0.0000000
-0.0021477  -0.0455499  0.0000000

LINES  159  477
2  0  10
2  10  58
2  58  59
2  58  11
2  10  6
2  6  144
2  144  145
2  144  36
2  36  146
2  146  147
2  146  37
2  36  72
2  72  52
2  52  82
2  82  152
2  152  153
2  152  83
2  82  70
2  70  71
2  70  80
2  80  7
2  80  81
2  52  53
2  72  73
2  6  128
2  128  100
2  100  76
2  76  2
2  2  18
2  18  94
2  94  95
2  94  56
2  56  57
2  56  38
2  38  90
2  90  91
2  90  98
2  98  39
2  98  99
2  38  19
2  18  14
2  14  140
2  140  141
2  140  42
2  42  62
2  62  63
2  62  43
2  42  15
2  14  154
2  154  4
2  4  130
2  130  131
2  130  22
2  22  132
2  132  133
2  132  78
2  78  79
2  78  23
2  22  44
2  44  120
2  120  134
2  134  135
2  134  121
2  120  20
2  20  46
2  46  47
2  46  86
2  86  21
2  86  87
2  20  108
2  108  5
2  108  109
2  44  106
2  106  45
2  106  107
2  4  96
2  96  3
2  96  156
2  156  97
2  156  157
2  154  155
2  2  54
2  54  32
2  32  64
2  64  65
2  64  30
2  30  114
2  114  115
2  114  8
2  8  142
2  142  143
2  142  66
2  66  67
2  66  34
2  34  35
2  34  122
2  122  16
2  16  112
2  112  113
2  112  84
2  84  85
2  84  150
2  150  40
2  40  41
2  40  17
2  150  151
2  16  26
2  26  12
2  12  24
2  24  104
2  104  105
2  104  25
2  24  13
2  12  1
2  26  74
2  74  136
2  136  137
2  136  50
2  50  27
2  50  138
2  138  158
2  158  159
2  158  92
2  92  51
2  92  93
2  138  139
2  74  75
2  122  123
2  8  124
2  124  118
2  118  28
2  28  60
2  60  61
2  60  88
2  88  9
2  88  116
2  116  89
2  116  117
2  28  110
2  110  68
2  68  29
2  68  69
2  110  148
2  148  111
2  148  149
2  118  119
2  124  126
2  126  125
2  126  127
2  30  102
2  102  31
2  102  103
2  32  48
2  48  33
2  48  49
2  54  55
2  76  77
2  100  101
2  128  129

CELL_DATA  159
scalars raio float
LOOKUP_TABLE default
1.0521391
0.2836467
0.2603295
0.1730033
1.0452220
0.4940520
0.1716661
0.4870445
0.2461677
0.1812825
0.2076986
0.4651094
0.4480639
0.4339033
0.3100421
0.2863791
0.1848510
0.3729848
0.2298736
0.3412577
0.2608067
0.2802111
0.2021595
0.2200948
1.0070507
1.0052624
1.0034802
1.0008973
0.7447030
0.4245479
0.1967074
0.4099773
0.2169235
0.3886432
0.3711463
0.2362425
0.3360217
0.2026179
0.3094132
0.1964092
0.6955351
0.3684398
0.1885901
0.3511729
0.3352678
0.2467106
0.2830171
0.1778118
0.6592089
0.6521637
0.6198407
0.2057822
0.6121862
0.3600316
0.2278828
0.3265892
0.2646921
0.2534941
0.5674949
0.5255916
0.3296713
0.3045103
0.1965539
0.4782155
0.4321806
0.2700126
0.3937291
0.2761341
0.3419430
0.3059567
0.1757777
0.2852468
0.3349219
0.2536265
0.2770011
0.3397930
0.2604737
0.2783234
0.1770854
0.2520196
0.2086749
0.8385762
0.8342475
0.8228078
0.1980615
0.8189644
0.8096811
0.1903526
0.8061589
0.7092161
0.1829457
0.7051349
0.2330155
0.6965489
0.2397720
0.6869467
0.6804578
0.4496384
0.2353686
0.4270219
0.2254314
0.4049595
0.3723683
0.3129519
0.2758124
0.2454001
0.6074642
0.4310037
0.4196903
0.3573775
0.2902469
0.2767326
0.3046694
0.1831227
0.5242659
0.5068384
0.2657706
0.4812048
0.2481396
0.4581210
0.4158502
0.3011957
0.3546043
0.2113550
0.3275671
0.2893864
0.2404254
0.2087745
0.5508961
0.5304560
0.5205814
0.4181426
0.2481406
0.3867102
0.1772673
0.3738724
0.2899849
0.3032059
0.4081069
0.3275809
0.1795576
0.3085095
0.3201636
0.2076925
0.2878848
0.2015011
0.2617238
0.1737819
0.2331861
0.2643263
0.1704887
0.2381840
0.2866721
0.1876757
0.2568689
0.2086605
0.1981728
0.1753697
0.1757774
