# vtk DataFile Version 3.0
vtk output
ASCII
DATASET POLYDATA
POINTS  128  float
0.0000000  0.0500000  0.0000000
0.0123338  -0.0257925  0.0000000
-0.0050136  0.0289633  0.0000000
-0.0452107  0.0037871  0.0000000
-0.0258511  0.0018757  0.0000000
-0.0299338  -0.0305092  0.0000000
-0.0010027  0.0457927  0.0000000
0.0408443  0.0165721  0.0000000
0.0115564  0.0004108  0.0000000
0.0394525  -0.0124345  0.0000000
-0.0005014  0.0478963  0.0000000
-0.0216003  0.0444594  0.0000000
0.0104610  -0.0227794  0.0000000
0.0018921  -0.0495410  0.0000000
-0.0150602  0.0090114  0.0000000
-0.0104088  -0.0067664  0.0000000
0.0106801  -0.0181414  0.0000000
0.0323737  -0.0338711  0.0000000
-0.0070229  0.0249729  0.0000000
-0.0304415  0.0265601  0.0000000
-0.0284946  -0.0286980  0.0000000
-0.0263187  -0.0418534  0.0000000
-0.0294452  -0.0087417  0.0000000
-0.0440185  -0.0148005  0.0000000
0.0106436  -0.0340630  0.0000000
0.0190764  -0.0452627  0.0000000
0.0105048  -0.0218518  0.0000000
-0.0079927  -0.0317658  0.0000000
0.0276251  -0.0034767  0.0000000
0.0389900  0.0024105  0.0000000
0.0052668  0.0079460  0.0000000
-0.0008272  0.0011078  0.0000000
0.0011546  0.0163529  0.0000000
0.0148390  0.0186285  0.0000000
0.0110306  -0.0107205  0.0000000
-0.0021371  -0.0142825  0.0000000
0.0104669  0.0409941  0.0000000
0.0223765  0.0428442  0.0000000
-0.0262717  0.0235066  0.0000000
-0.0437569  0.0188037  0.0000000
0.0292425  -0.0285059  0.0000000
0.0392129  -0.0259350  0.0000000
-0.0120606  -0.0048665  0.0000000
-0.0131739  -0.0205311  0.0000000
-0.0307922  -0.0192085  0.0000000
-0.0401220  -0.0267633  0.0000000
-0.0260305  -0.0311781  0.0000000
-0.0194967  -0.0313577  0.0000000
0.0116402  0.0160354  0.0000000
0.0254581  0.0118062  0.0000000
-0.0010979  -0.0318126  0.0000000
-0.0072562  -0.0430654  0.0000000
0.0307741  0.0305316  0.0000000
0.0350536  0.0334435  0.0000000
-0.0025463  0.0239191  0.0000000
0.0106352  0.0263337  0.0000000
-0.0228516  0.0222358  0.0000000
-0.0265506  0.0139146  0.0000000
-0.0191267  0.0437290  0.0000000
-0.0298767  0.0360280  0.0000000
0.0333322  -0.0098225  0.0000000
0.0346492  -0.0172274  0.0000000
-0.0134464  -0.0067539  0.0000000
-0.0203047  -0.0107883  0.0000000
0.0019771  0.0146715  0.0000000
-0.0053582  0.0083728  0.0000000
0.0111358  -0.0084942  0.0000000
0.0226280  -0.0138280  0.0000000
0.0383493  0.0013738  0.0000000
0.0480730  0.0056472  0.0000000
0.0323435  0.0244912  0.0000000
0.0306433  0.0186351  0.0000000
0.0201969  0.0328819  0.0000000
0.0222401  0.0220151  0.0000000
0.0028091  -0.0265408  0.0000000
-0.0042356  -0.0225207  0.0000000
-0.0042114  0.0323292  0.0000000
-0.0161247  0.0321827  0.0000000
-0.0395872  -0.0103925  0.0000000
-0.0465657  -0.0078416  0.0000000
0.0363442  0.0174656  0.0000000
0.0352823  0.0114451  0.0000000
0.0317157  0.0269074  0.0000000
0.0403131  0.0256365  0.0000000
0.0188113  -0.0239521  0.0000000
0.0174143  -0.0298426  0.0000000
-0.0246524  -0.0389945  0.0000000
-0.0197843  -0.0450646  0.0000000
0.0387605  -0.0114439  0.0000000
0.0472797  -0.0128777  0.0000000
-0.0326722  0.0231242  0.0000000
-0.0378613  0.0287586  0.0000000
-0.0068430  -0.0418010  0.0000000
-0.0116018  -0.0478224  0.0000000
-0.0202760  0.0238683  0.0000000
-0.0245613  0.0293596  0.0000000
-0.0317291  0.0041057  0.0000000
-0.0325964  0.0094154  0.0000000
-0.0424304  0.0188410  0.0000000
-0.0479366  0.0141764  0.0000000
-0.0035697  0.0350219  0.0000000
0.0034180  0.0323619  0.0000000
0.0012706  0.0011399  0.0000000
-0.0011272  -0.0064847  0.0000000
0.0167597  -0.0394838  0.0000000
0.0241809  -0.0407837  0.0000000
-0.0383555  -0.0223156  0.0000000
-0.0450976  -0.0213634  0.0000000
-0.0294754  -0.0294026  0.0000000
-0.0358843  -0.0346869  0.0000000
0.0344056  -0.0022953  0.0000000
0.0406843  -0.0054259  0.0000000
0.0171851  -0.0227899  0.0000000
0.0246508  -0.0201107  0.0000000
0.0065247  0.0064390  0.0000000
0.0131998  0.0094287  0.0000000
0.0411928  -0.0138699  0.0000000
0.0439256  -0.0207158  0.0000000
0.0244114  -0.0026992  0.0000000
0.0243281  -0.0084037  0.0000000
-0.0303327  -0.0211064  0.0000000
-0.0210859  -0.0221956  0.0000000
0.0107502  -0.0166572  0.0000000
0.0042707  -0.0192495  0.0000000
0.0166984  -0.0008332  0.0000000
0.0201764  0.0047024  0.0000000
0.0201473  0.0026214  0.0000000
0.0261417  0.0057185  0.0000000

LINES  127  381
2  0  10
2  10  58
2  58  59
2  58  11
2  10  6
2  6  36
2  36  37
2  36  72
2  72  52
2  52  82
2  82  83
2  82  70
2  70  71
2  70  80
2  80  7
2  80  81
2  52  53
2  72  73
2  6  100
2  100  76
2  76  2
2  2  18
2  18  94
2  94  95
2  94  56
2  56  57
2  56  38
2  38  90
2  90  91
2  90  98
2  98  39
2  98  99
2  38  19
2  18  14
2  14  42
2  42  62
2  62  63
2  62  43
2  42  15
2  14  4
2  4  22
2  22  78
2  78  79
2  78  23
2  22  44
2  44  120
2  120  121
2  120  20
2  20  46
2  46  47
2  46  86
2  86  21
2  86  87
2  20  108
2  108  5
2  108  109
2  44  106
2  106  45
2  106  107
2  4  96
2  96  3
2  96  97
2  2  54
2  54  32
2  32  64
2  64  65
2  64  30
2  30  114
2  114  115
2  114  8
2  8  66
2  66  67
2  66  34
2  34  35
2  34  122
2  122  16
2  16  112
2  112  113
2  112  84
2  84  85
2  84  40
2  40  41
2  40  17
2  16  26
2  26  12
2  12  24
2  24  104
2  104  105
2  104  25
2  24  13
2  12  1
2  26  74
2  74  50
2  50  27
2  50  92
2  92  51
2  92  93
2  74  75
2  122  123
2  8  124
2  124  118
2  118  28
2  28  60
2  60  61
2  60  88
2  88  9
2  88  116
2  116  89
2  116  117
2  28  110
2  110  68
2  68  29
2  68  69
2  110  111
2  118  119
2  124  126
2  126  125
2  126  127
2  30  102
2  102  31
2  102  103
2  32  48
2  48  33
2  48  49
2  54  55
2  76  77
2  100  101

CELL_DATA  127
scalars raio float
LOOKUP_TABLE default
0.9934771
0.2836539
0.2603362
0.1730077
0.9857087
0.4576934
0.2063307
0.4432662
0.4242884
0.4080353
0.2435736
0.3767690
0.2322059
0.3447200
0.2634527
0.2830541
0.2036476
0.2204566
0.9516525
0.9496605
0.9467702
0.7000986
0.4248523
0.1968485
0.4102713
0.2170790
0.3889219
0.3714124
0.2364119
0.3362627
0.2027632
0.3096350
0.1965500
0.6434927
0.3478598
0.3321047
0.2443830
0.2803469
0.1761342
0.6076484
0.5820892
0.3244221
0.2629357
0.2518120
0.5463479
0.5007750
0.2529057
0.4782780
0.4322370
0.2700479
0.3937806
0.2761701
0.3419877
0.3059967
0.1758006
0.2852840
0.3347179
0.2534720
0.2768324
0.3005105
0.2624041
0.2085463
0.7966080
0.7917882
0.7789707
0.1985543
0.7746467
0.7641392
0.1910594
0.7601369
0.6582105
0.2345192
0.6481330
0.2414805
0.6367609
0.6289773
0.4265067
0.2382626
0.4001229
0.2283303
0.3736218
0.3140054
0.2767410
0.5553163
0.4360098
0.4245650
0.3615284
0.2936181
0.2799468
0.3082081
0.1852496
0.4453999
0.4186830
0.2578960
0.3831331
0.2283591
0.3539207
0.2464328
0.2106905
0.5360682
0.5140031
0.5032025
0.4219614
0.2504068
0.3902419
0.1788862
0.3772868
0.2926333
0.3059750
0.3739353
0.3347261
0.1834741
0.3152387
0.2454274
0.2031334
0.2632830
0.1748172
0.2345752
0.2652408
0.1710786
0.2390081
0.2873188
0.1880991
0.2574483
0.2089324
0.1982877
0.1754490
