# vtk DataFile Version 3.0
vtk output
ASCII
DATASET POLYDATA
POINTS  320  float
0.0000000  0.0500000  0.0000000
0.0123338  -0.0257925  0.0000000
-0.0050136  0.0289633  0.0000000
-0.0452107  0.0037871  0.0000000
-0.0258511  0.0018757  0.0000000
-0.0299338  -0.0305092  0.0000000
-0.0010027  0.0457927  0.0000000
0.0408443  0.0165721  0.0000000
0.0115564  0.0004108  0.0000000
0.0394525  -0.0124345  0.0000000
-0.0005014  0.0478963  0.0000000
-0.0216003  0.0444594  0.0000000
0.0104610  -0.0227794  0.0000000
0.0018921  -0.0495410  0.0000000
-0.0150602  0.0090114  0.0000000
-0.0104088  -0.0067664  0.0000000
0.0106801  -0.0181414  0.0000000
0.0323737  -0.0338711  0.0000000
-0.0070229  0.0249729  0.0000000
-0.0304415  0.0265601  0.0000000
-0.0284946  -0.0286980  0.0000000
-0.0263187  -0.0418534  0.0000000
-0.0294452  -0.0087417  0.0000000
-0.0440185  -0.0148005  0.0000000
0.0106436  -0.0340630  0.0000000
0.0190764  -0.0452627  0.0000000
0.0105048  -0.0218518  0.0000000
-0.0079927  -0.0317658  0.0000000
0.0276251  -0.0034767  0.0000000
0.0389900  0.0024105  0.0000000
0.0052668  0.0079460  0.0000000
-0.0008272  0.0011078  0.0000000
0.0011546  0.0163529  0.0000000
0.0148390  0.0186285  0.0000000
0.0110306  -0.0107205  0.0000000
-0.0021371  -0.0142825  0.0000000
0.0104669  0.0409941  0.0000000
0.0223765  0.0428442  0.0000000
-0.0262717  0.0235066  0.0000000
-0.0437569  0.0188037  0.0000000
0.0292425  -0.0285059  0.0000000
0.0392129  -0.0259350  0.0000000
-0.0120606  -0.0048665  0.0000000
-0.0131739  -0.0205311  0.0000000
-0.0307922  -0.0192085  0.0000000
-0.0401220  -0.0267633  0.0000000
-0.0260305  -0.0311781  0.0000000
-0.0194967  -0.0313577  0.0000000
0.0116402  0.0160354  0.0000000
0.0254581  0.0118062  0.0000000
-0.0010979  -0.0318126  0.0000000
-0.0072562  -0.0430654  0.0000000
0.0307741  0.0305316  0.0000000
0.0350536  0.0334435  0.0000000
-0.0025463  0.0239191  0.0000000
0.0106352  0.0263337  0.0000000
-0.0228516  0.0222358  0.0000000
-0.0265506  0.0139146  0.0000000
-0.0191267  0.0437290  0.0000000
-0.0298767  0.0360280  0.0000000
0.0333322  -0.0098225  0.0000000
0.0346492  -0.0172274  0.0000000
-0.0134464  -0.0067539  0.0000000
-0.0203047  -0.0107883  0.0000000
0.0019771  0.0146715  0.0000000
-0.0053582  0.0083728  0.0000000
0.0111358  -0.0084942  0.0000000
0.0226280  -0.0138280  0.0000000
0.0383493  0.0013738  0.0000000
0.0480730  0.0056472  0.0000000
0.0323435  0.0244912  0.0000000
0.0306433  0.0186351  0.0000000
0.0201969  0.0328819  0.0000000
0.0222401  0.0220151  0.0000000
0.0028091  -0.0265408  0.0000000
-0.0042356  -0.0225207  0.0000000
-0.0042114  0.0323292  0.0000000
-0.0161247  0.0321827  0.0000000
-0.0395872  -0.0103925  0.0000000
-0.0465657  -0.0078416  0.0000000
0.0363442  0.0174656  0.0000000
0.0352823  0.0114451  0.0000000
0.0317157  0.0269074  0.0000000
0.0403131  0.0256365  0.0000000
0.0188113  -0.0239521  0.0000000
0.0174143  -0.0298426  0.0000000
-0.0246524  -0.0389945  0.0000000
-0.0197843  -0.0450646  0.0000000
0.0387605  -0.0114439  0.0000000
0.0472797  -0.0128777  0.0000000
-0.0326722  0.0231242  0.0000000
-0.0378613  0.0287586  0.0000000
-0.0068430  -0.0418010  0.0000000
-0.0116018  -0.0478224  0.0000000
-0.0202760  0.0238683  0.0000000
-0.0245613  0.0293596  0.0000000
-0.0317291  0.0041057  0.0000000
-0.0325964  0.0094154  0.0000000
-0.0424304  0.0188410  0.0000000
-0.0479366  0.0141764  0.0000000
-0.0035697  0.0350219  0.0000000
0.0034180  0.0323619  0.0000000
0.0012706  0.0011399  0.0000000
-0.0011272  -0.0064847  0.0000000
0.0167597  -0.0394838  0.0000000
0.0241809  -0.0407837  0.0000000
-0.0383555  -0.0223156  0.0000000
-0.0450976  -0.0213634  0.0000000
-0.0294754  -0.0294026  0.0000000
-0.0358843  -0.0346869  0.0000000
0.0344056  -0.0022953  0.0000000
0.0406843  -0.0054259  0.0000000
0.0171851  -0.0227899  0.0000000
0.0246508  -0.0201107  0.0000000
0.0065247  0.0064390  0.0000000
0.0131998  0.0094287  0.0000000
0.0411928  -0.0138699  0.0000000
0.0439256  -0.0207158  0.0000000
0.0244114  -0.0026992  0.0000000
0.0243281  -0.0084037  0.0000000
-0.0303327  -0.0211064  0.0000000
-0.0210859  -0.0221956  0.0000000
0.0107502  -0.0166572  0.0000000
0.0042707  -0.0192495  0.0000000
0.0166984  -0.0008332  0.0000000
0.0201764  0.0047024  0.0000000
0.0201473  0.0026214  0.0000000
0.0261417  0.0057185  0.0000000
-0.0025429  0.0393302  0.0000000
-0.0103610  0.0390260  0.0000000
-0.0276482  -0.0034330  0.0000000
-0.0345449  -0.0037753  0.0000000
-0.0354308  -0.0107159  0.0000000
-0.0376968  -0.0163348  0.0000000
-0.0219127  -0.0230830  0.0000000
-0.0160546  -0.0268916  0.0000000
0.0020277  -0.0275952  0.0000000
-0.0093293  -0.0256896  0.0000000
-0.0058031  -0.0370686  0.0000000
-0.0139882  -0.0359459  0.0000000
-0.0123586  0.0020547  0.0000000
-0.0080530  -0.0003144  0.0000000
0.0113040  -0.0049322  0.0000000
0.0062835  -0.0059420  0.0000000
0.0035851  0.0438732  0.0000000
0.0084035  0.0486344  0.0000000
0.0132139  0.0423858  0.0000000
0.0142375  0.0476106  0.0000000
0.0395721  -0.0037364  0.0000000
0.0470378  -0.0038648  0.0000000
0.0239676  -0.0277874  0.0000000
0.0255181  -0.0334814  0.0000000
0.0394354  0.0251549  0.0000000
0.0445369  0.0224650  0.0000000
-0.0236929  0.0033028  0.0000000
-0.0205981  -0.0047978  0.0000000
-0.0330278  0.0079141  0.0000000
-0.0373528  0.0126425  0.0000000
-0.0066350  -0.0408545  0.0000000
-0.0021477  -0.0455499  0.0000000
0.0244278  0.0319418  0.0000000
0.0271305  0.0377604  0.0000000
-0.0102378  0.0185883  0.0000000
-0.0156663  0.0186094  0.0000000
-0.0405469  0.0020002  0.0000000
-0.0458033  -0.0021554  0.0000000
-0.0093119  -0.0002831  0.0000000
-0.0057637  -0.0043299  0.0000000
-0.0301120  0.0232772  0.0000000
-0.0326173  0.0170371  0.0000000
-0.0299840  -0.0129284  0.0000000
-0.0203405  -0.0167642  0.0000000
-0.0193766  0.0061571  0.0000000
-0.0239186  0.0106633  0.0000000
-0.0339940  -0.0312631  0.0000000
-0.0371873  -0.0299324  0.0000000
0.0438734  0.0053059  0.0000000
0.0475910  0.0117037  0.0000000
-0.0015473  0.0097808  0.0000000
-0.0017014  0.0056866  0.0000000
0.0091349  -0.0402355  0.0000000
0.0123795  -0.0455935  0.0000000
0.0338739  -0.0163987  0.0000000
0.0335434  -0.0220427  0.0000000
0.0007775  -0.0292821  0.0000000
0.0037172  -0.0338930  0.0000000
-0.0122990  0.0006704  0.0000000
-0.0169274  -0.0023024  0.0000000
-0.0440957  0.0036579  0.0000000
-0.0493188  0.0072238  0.0000000
-0.0228095  0.0289585  0.0000000
-0.0239078  0.0342838  0.0000000
-0.0120736  -0.0101348  0.0000000
-0.0078851  -0.0128043  0.0000000
0.0402754  0.0169279  0.0000000
0.0463493  0.0164912  0.0000000
-0.0020390  -0.0328638  0.0000000
0.0014848  -0.0399825  0.0000000
0.0367718  -0.0000939  0.0000000
0.0350284  0.0050042  0.0000000
-0.0040845  0.0082930  0.0000000
-0.0064483  0.0045302  0.0000000
0.0434719  -0.0049874  0.0000000
0.0452451  -0.0087670  0.0000000
0.0143589  0.0377493  0.0000000
0.0109776  0.0313992  0.0000000
0.0256971  0.0316598  0.0000000
0.0270627  0.0256490  0.0000000
0.0130363  0.0329807  0.0000000
0.0147654  0.0289928  0.0000000
0.0455276  -0.0035915  0.0000000
0.0499573  0.0001739  0.0000000
-0.0373541  0.0040231  0.0000000
-0.0415344  0.0096430  0.0000000
0.0326678  -0.0135955  0.0000000
0.0278928  -0.0177853  0.0000000
-0.0006958  0.0201360  0.0000000
-0.0049246  0.0167870  0.0000000
0.0225439  0.0234976  0.0000000
0.0253790  0.0182311  0.0000000
0.0257718  -0.0324208  0.0000000
0.0292887  -0.0390269  0.0000000
-0.0353069  0.0276817  0.0000000
-0.0345693  0.0322536  0.0000000
-0.0114075  -0.0383597  0.0000000
-0.0151319  -0.0422259  0.0000000
0.0047003  -0.0188729  0.0000000
-0.0003336  -0.0198118  0.0000000
0.0095061  -0.0362417  0.0000000
0.0059858  -0.0376497  0.0000000
0.0303373  -0.0030041  0.0000000
0.0309168  0.0031509  0.0000000
-0.0365774  0.0223394  0.0000000
-0.0412229  0.0251792  0.0000000
0.0320211  -0.0314593  0.0000000
0.0363840  -0.0332109  0.0000000
0.0197836  -0.0015796  0.0000000
0.0199722  -0.0071833  0.0000000
-0.0242195  -0.0352468  0.0000000
-0.0204369  -0.0370579  0.0000000
-0.0290858  -0.0076799  0.0000000
-0.0247046  -0.0110049  0.0000000
0.0241954  -0.0304418  0.0000000
0.0211062  -0.0333732  0.0000000
0.0272293  0.0353107  0.0000000
0.0322721  0.0377359  0.0000000
0.0126904  0.0083258  0.0000000
0.0171963  0.0075738  0.0000000
0.0085374  0.0040277  0.0000000
0.0054017  -0.0002493  0.0000000
-0.0113433  -0.0143100  0.0000000
-0.0080223  -0.0180015  0.0000000
-0.0303792  -0.0297747  0.0000000
-0.0313858  -0.0388414  0.0000000
-0.0415798  -0.0002641  0.0000000
-0.0400324  -0.0036252  0.0000000
0.0184413  0.0149214  0.0000000
0.0204029  0.0173850  0.0000000
-0.0216383  -0.0172950  0.0000000
-0.0182224  -0.0197879  0.0000000
0.0299080  -0.0060150  0.0000000
0.0278621  -0.0102824  0.0000000
0.0349306  -0.0188934  0.0000000
0.0385797  -0.0216198  0.0000000
-0.0140957  0.0109267  0.0000000
-0.0200813  0.0126013  0.0000000
-0.0069871  -0.0036139  0.0000000
-0.0046520  -0.0084284  0.0000000
0.0074148  0.0239379  0.0000000
0.0105168  0.0225498  0.0000000
0.0039780  -0.0115631  0.0000000
0.0021590  -0.0097917  0.0000000
-0.0241693  0.0309240  0.0000000
-0.0295238  0.0325890  0.0000000
-0.0083820  -0.0016154  0.0000000
-0.0047716  -0.0009638  0.0000000
-0.0238316  0.0088746  0.0000000
-0.0287565  0.0101431  0.0000000
0.0114050  -0.0027950  0.0000000
0.0143283  -0.0052166  0.0000000
-0.0095678  -0.0172967  0.0000000
-0.0086499  -0.0215252  0.0000000
-0.0218213  0.0228888  0.0000000
-0.0204738  0.0176263  0.0000000
0.0247456  0.0055841  0.0000000
0.0308150  0.0105785  0.0000000
0.0225603  -0.0022513  0.0000000
0.0245966  0.0008058  0.0000000
0.0027635  0.0248276  0.0000000
0.0054662  0.0276780  0.0000000
0.0341313  0.0315071  0.0000000
0.0386998  0.0304709  0.0000000
-0.0111476  0.0337159  0.0000000
-0.0139736  0.0368090  0.0000000
0.0074214  -0.0443212  0.0000000
0.0086346  -0.0487295  0.0000000
-0.0433860  0.0033264  0.0000000
-0.0497564  -0.0000730  0.0000000
-0.0121668  0.0147575  0.0000000
-0.0085635  0.0120319  0.0000000
0.0302690  -0.0173178  0.0000000
0.0299467  -0.0210379  0.0000000
0.0103488  0.0018576  0.0000000
0.0151686  0.0046430  0.0000000
0.0152421  0.0087622  0.0000000
0.0169393  0.0112095  0.0000000
-0.0141101  -0.0419873  0.0000000
-0.0161287  -0.0458297  0.0000000
-0.0169637  -0.0104298  0.0000000
-0.0175796  -0.0142067  0.0000000
-0.0133241  0.0124591  0.0000000
-0.0093663  0.0078315  0.0000000
0.0039509  0.0106362  0.0000000
0.0077325  0.0116613  0.0000000
0.0098384  -0.0282654  0.0000000
0.0061363  -0.0302687  0.0000000
-0.0040267  0.0269456  0.0000000
0.0007501  0.0284546  0.0000000
0.0319625  -0.0082995  0.0000000
0.0355070  -0.0069525  0.0000000

LINES  319  957
2  0  10
2  10  58
2  58  59
2  58  11
2  10  6
2  6  144
2  144  145
2  144  36
2  36  146
2  146  147
2  146  37
2  36  204
2  204  72
2  72  160
2  160  244
2  244  245
2  244  161
2  160  206
2  206  52
2  52  82
2  82  152
2  152  153
2  152  83
2  82  70
2  70  71
2  70  80
2  80  194
2  194  195
2  194  7
2  80  81
2  52  290
2  290  53
2  290  291
2  206  207
2  72  218
2  218  73
2  218  219
2  204  208
2  208  205
2  208  209
2  6  128
2  128  100
2  100  76
2  76  2
2  2  18
2  18  94
2  94  190
2  190  272
2  272  273
2  272  191
2  190  95
2  94  282
2  282  56
2  56  57
2  56  38
2  38  168
2  168  169
2  168  90
2  90  222
2  222  223
2  222  91
2  90  232
2  232  98
2  98  39
2  98  99
2  232  233
2  38  19
2  282  283
2  18  162
2  162  298
2  298  299
2  298  310
2  310  264
2  264  265
2  264  14
2  14  140
2  140  166
2  166  274
2  274  275
2  274  266
2  266  267
2  266  167
2  166  141
2  140  186
2  186  42
2  42  62
2  62  308
2  308  309
2  308  63
2  62  192
2  192  250
2  250  280
2  280  281
2  280  251
2  250  43
2  192  193
2  42  15
2  186  187
2  14  172
2  172  154
2  154  4
2  4  130
2  130  131
2  130  240
2  240  22
2  22  132
2  132  133
2  132  78
2  78  79
2  78  23
2  22  170
2  170  44
2  44  120
2  120  134
2  134  135
2  134  121
2  120  20
2  20  46
2  46  47
2  46  238
2  238  86
2  86  21
2  86  87
2  238  239
2  20  108
2  108  5
2  108  252
2  252  174
2  174  109
2  174  175
2  252  253
2  44  106
2  106  45
2  106  107
2  170  258
2  258  171
2  258  259
2  240  241
2  4  96
2  96  212
2  212  213
2  212  164
2  164  254
2  254  255
2  254  165
2  164  296
2  296  188
2  188  3
2  188  189
2  296  297
2  96  156
2  156  97
2  156  157
2  154  155
2  172  276
2  276  173
2  276  277
2  310  311
2  162  163
2  2  316
2  316  54
2  54  216
2  216  217
2  216  32
2  32  64
2  64  178
2  178  179
2  178  200
2  200  65
2  200  201
2  64  312
2  312  30
2  30  114
2  114  246
2  246  304
2  304  305
2  304  247
2  246  115
2  114  248
2  248  302
2  302  303
2  302  8
2  8  278
2  278  279
2  278  142
2  142  143
2  142  66
2  66  67
2  66  34
2  34  270
2  270  271
2  270  35
2  34  122
2  122  16
2  16  112
2  112  113
2  112  84
2  84  85
2  84  150
2  150  40
2  40  41
2  40  234
2  234  17
2  234  235
2  150  242
2  242  220
2  220  151
2  220  221
2  242  243
2  16  26
2  26  12
2  12  314
2  314  315
2  314  24
2  24  104
2  104  105
2  104  25
2  24  228
2  228  180
2  180  294
2  294  295
2  294  13
2  180  181
2  228  229
2  12  1
2  26  74
2  74  136
2  136  137
2  136  184
2  184  50
2  50  27
2  50  196
2  196  138
2  138  158
2  158  159
2  158  92
2  92  51
2  92  93
2  138  224
2  224  139
2  224  306
2  306  225
2  306  307
2  196  197
2  184  185
2  74  75
2  122  226
2  226  123
2  226  227
2  8  124
2  124  236
2  236  237
2  236  286
2  286  118
2  118  28
2  28  260
2  260  261
2  260  318
2  318  60
2  60  214
2  214  300
2  300  301
2  300  215
2  214  182
2  182  262
2  262  263
2  262  183
2  182  61
2  60  88
2  88  9
2  88  116
2  116  89
2  116  117
2  318  319
2  28  230
2  230  110
2  110  198
2  198  199
2  198  68
2  68  29
2  68  176
2  176  69
2  176  177
2  110  148
2  148  111
2  148  202
2  202  210
2  210  211
2  210  149
2  202  203
2  230  231
2  118  119
2  286  287
2  124  126
2  126  125
2  126  284
2  284  127
2  284  285
2  248  249
2  30  102
2  102  31
2  102  103
2  312  313
2  32  48
2  48  33
2  48  256
2  256  49
2  256  257
2  54  288
2  288  268
2  268  55
2  268  269
2  288  289
2  316  317
2  76  292
2  292  77
2  292  293
2  100  101
2  128  129

CELL_DATA  319
scalars raio float
LOOKUP_TABLE default
1.0585242
0.2384946
0.2188891
0.1454639
1.0544730
0.4875521
0.1441270
0.4833172
0.2063777
0.1519804
0.1741267
0.4704338
0.4582344
0.4371502
0.2180301
0.1888633
0.1536568
0.4182676
0.4091707
0.3862589
0.2575400
0.2378841
0.1535485
0.3435455
0.1899618
0.3229786
0.2824813
0.2664747
0.1535277
0.2234095
0.2215550
0.1572543
0.1911715
0.1671658
0.2331880
0.1493919
0.2106394
0.1990895
0.1472438
0.1674936
1.0185177
1.0174803
1.0164483
1.0137676
0.7591904
0.4305244
0.2496118
0.2352864
0.1978206
0.1741765
0.1362069
0.4005116
0.3923269
0.1805817
0.3791356
0.3688210
0.1823626
0.3533172
0.2476734
0.2083199
0.1832368
0.3069236
0.2789451
0.1682012
0.2568563
0.1931697
0.1629663
0.1568495
0.7099110
0.7079698
0.1387291
0.7061897
0.7038853
0.1526664
0.7014832
0.4275896
0.2690443
0.2601327
0.1699796
0.2332598
0.2100603
0.1507037
0.1232402
0.3886446
0.3789496
0.3720394
0.2455252
0.1979880
0.1916560
0.3323019
0.3113884
0.2690018
0.2352078
0.1861763
0.2205465
0.1866374
0.1429806
0.1624175
0.6439337
0.6366729
0.6322490
0.5753440
0.1720747
0.5701669
0.5653719
0.3007396
0.1903538
0.2728047
0.2211012
0.2117473
0.5354515
0.5157622
0.4871166
0.2737932
0.2528969
0.1632387
0.4563863
0.3828237
0.2219182
0.3561508
0.3266304
0.2290757
0.2836696
0.2177740
0.3389925
0.1415898
0.3305503
0.2812054
0.2265617
0.2197193
0.2403257
0.2785551
0.2109416
0.2303824
0.2536539
0.1705700
0.2247822
0.1667575
0.3963919
0.3704363
0.1932855
0.3519924
0.2527431
0.1948439
0.2060479
0.3017174
0.2495978
0.1494618
0.2302763
0.2284117
0.2253987
0.1434117
0.2040968
0.1748150
0.2074728
0.1409742
0.1830048
0.1509045
0.1430442
0.8454425
0.8442710
0.8381774
0.1412384
0.8368385
0.8274665
0.2350506
0.1571097
0.2088390
0.1369123
0.1870250
0.8210955
0.8198919
0.8144516
0.2345372
0.2218361
0.1816828
0.1700776
0.1256663
0.8079162
0.8062298
0.1520568
0.8044228
0.6856863
0.1408175
0.6837008
0.1530598
0.6811342
0.1947883
0.6757822
0.2343102
0.1612408
0.2054493
0.6662592
0.6576271
0.4330051
0.1943403
0.4195417
0.1855338
0.4070805
0.3409827
0.2527366
0.2864410
0.2073396
0.2443455
0.3029826
0.2715357
0.1563311
0.2530305
0.1982562
0.5879259
0.4312884
0.4248482
0.1671820
0.4160374
0.2989208
0.2427708
0.2314670
0.3564807
0.3404603
0.3069758
0.2272628
0.2580818
0.2192276
0.1800534
0.1524114
0.4973146
0.4864529
0.2197923
0.4710113
0.4611071
0.2038467
0.4474255
0.4303297
0.3361439
0.2434653
0.2866371
0.1708444
0.2647821
0.3467958
0.2179322
0.3153415
0.2003281
0.2856922
0.2145774
0.1861858
0.1990309
0.2247135
0.1224529
0.2118731
0.5829975
0.5650782
0.1611307
0.5606769
0.5572366
0.5521812
0.4431237
0.1693446
0.4347213
0.4264816
0.3588367
0.2655944
0.2215547
0.1988247
0.3017309
0.2887550
0.2369250
0.2208836
0.1502781
0.3153698
0.1445650
0.3049003
0.2364885
0.2472704
0.1661113
0.4332993
0.4227529
0.3369614
0.1927938
0.3144539
0.1392784
0.3050687
0.2240162
0.2578819
0.3341047
0.1588000
0.3216910
0.2870219
0.2585383
0.1853154
0.2128628
0.1796372
0.1671106
0.1477367
0.2606870
0.1374468
0.2472723
0.1482270
0.2280643
0.1488110
0.2217121
0.1430028
0.1997844
0.1344589
0.2690218
0.1561840
0.2501864
0.2179513
0.1744245
0.2347505
0.2145979
0.1737943
0.1667114
0.1450830
0.1358740
0.2023630
0.1648604
0.1561339
0.1473886
0.1477492
