# vtk DataFile Version 3.0
vtk output
ASCII
DATASET POLYDATA
POINTS  64  float
0.0000000  0.0500000  0.0000000
0.0123338  -0.0257925  0.0000000
-0.0050136  0.0289633  0.0000000
-0.0452107  0.0037871  0.0000000
-0.0258511  0.0018757  0.0000000
-0.0299338  -0.0305092  0.0000000
-0.0010027  0.0457927  0.0000000
0.0408443  0.0165721  0.0000000
0.0115564  0.0004108  0.0000000
0.0394525  -0.0124345  0.0000000
-0.0005014  0.0478963  0.0000000
-0.0216003  0.0444594  0.0000000
0.0104610  -0.0227794  0.0000000
0.0018921  -0.0495410  0.0000000
-0.0150602  0.0090114  0.0000000
-0.0104088  -0.0067664  0.0000000
0.0106801  -0.0181414  0.0000000
0.0323737  -0.0338711  0.0000000
-0.0070229  0.0249729  0.0000000
-0.0304415  0.0265601  0.0000000
-0.0284946  -0.0286980  0.0000000
-0.0263187  -0.0418534  0.0000000
-0.0294452  -0.0087417  0.0000000
-0.0440185  -0.0148005  0.0000000
0.0106436  -0.0340630  0.0000000
0.0190764  -0.0452627  0.0000000
0.0105048  -0.0218518  0.0000000
-0.0079927  -0.0317658  0.0000000
0.0276251  -0.0034767  0.0000000
0.0389900  0.0024105  0.0000000
0.0052668  0.0079460  0.0000000
-0.0008272  0.0011078  0.0000000
0.0011546  0.0163529  0.0000000
0.0148390  0.0186285  0.0000000
0.0110306  -0.0107205  0.0000000
-0.0021371  -0.0142825  0.0000000
0.0104669  0.0409941  0.0000000
0.0223765  0.0428442  0.0000000
-0.0262717  0.0235066  0.0000000
-0.0437569  0.0188037  0.0000000
0.0292425  -0.0285059  0.0000000
0.0392129  -0.0259350  0.0000000
-0.0120606  -0.0048665  0.0000000
-0.0131739  -0.0205311  0.0000000
-0.0307922  -0.0192085  0.0000000
-0.0401220  -0.0267633  0.0000000
-0.0260305  -0.0311781  0.0000000
-0.0194967  -0.0313577  0.0000000
0.0116402  0.0160354  0.0000000
0.0254581  0.0118062  0.0000000
-0.0010979  -0.0318126  0.0000000
-0.0072562  -0.0430654  0.0000000
0.0307741  0.0305316  0.0000000
0.0350536  0.0334435  0.0000000
-0.0025463  0.0239191  0.0000000
0.0106352  0.0263337  0.0000000
-0.0228516  0.0222358  0.0000000
-0.0265506  0.0139146  0.0000000
-0.0191267  0.0437290  0.0000000
-0.0298767  0.0360280  0.0000000
0.0333322  -0.0098225  0.0000000
0.0346492  -0.0172274  0.0000000
-0.0134464  -0.0067539  0.0000000
-0.0203047  -0.0107883  0.0000000

LINES  63  189
2  0  10
2  10  58
2  58  59
2  58  11
2  10  6
2  6  36
2  36  37
2  36  52
2  52  7
2  52  53
2  6  2
2  2  18
2  18  56
2  56  57
2  56  38
2  38  39
2  38  19
2  18  14
2  14  42
2  42  62
2  62  63
2  62  43
2  42  15
2  14  4
2  4  22
2  22  23
2  22  44
2  44  20
2  20  46
2  46  47
2  46  21
2  20  5
2  44  45
2  4  3
2  2  54
2  54  32
2  32  30
2  30  8
2  8  34
2  34  35
2  34  16
2  16  40
2  40  41
2  40  17
2  16  26
2  26  12
2  12  24
2  24  25
2  24  13
2  12  1
2  26  50
2  50  27
2  50  51
2  8  28
2  28  60
2  60  61
2  60  9
2  28  29
2  30  31
2  32  48
2  48  33
2  48  49
2  54  55

CELL_DATA  63
scalars raio float
LOOKUP_TABLE default
0.6932089
0.2385764
0.2189642
0.1455138
0.6836583
0.2982113
0.1761380
0.2761344
0.2464810
0.1825249
0.6641959
0.5036804
0.2918414
0.1875396
0.2633327
0.2359285
0.1724472
0.4686396
0.2950796
0.2817150
0.2073032
0.2378104
0.1494097
0.4258570
0.4053215
0.2243155
0.3809888
0.3503553
0.3342156
0.2480803
0.2804757
0.1783575
0.2308087
0.2199620
0.5487393
0.5426175
0.5259664
0.5200256
0.4734010
0.2043031
0.4603614
0.3119210
0.2621498
0.2310393
0.4065935
0.3347312
0.3226875
0.2482918
0.2634916
0.1574654
0.3097271
0.2254477
0.2632994
0.3256533
0.2863380
0.2306906
0.2237362
0.2227939
0.1695599
0.2425039
0.1587600
0.2172925
0.1761816
