# vtk DataFile Version 3.0
vtk output
ASCII
DATASET POLYDATA
POINTS  512  float
0.0000000  0.0500000  0.0000000
0.0123338  -0.0257925  0.0000000
-0.0050136  0.0289633  0.0000000
-0.0452107  0.0037871  0.0000000
-0.0258511  0.0018757  0.0000000
-0.0299338  -0.0305092  0.0000000
-0.0010027  0.0457927  0.0000000
0.0408443  0.0165721  0.0000000
0.0115564  0.0004108  0.0000000
0.0394525  -0.0124345  0.0000000
-0.0005014  0.0478963  0.0000000
-0.0216003  0.0444594  0.0000000
0.0104610  -0.0227794  0.0000000
0.0018921  -0.0495410  0.0000000
-0.0150602  0.0090114  0.0000000
-0.0104088  -0.0067664  0.0000000
0.0106801  -0.0181414  0.0000000
0.0323737  -0.0338711  0.0000000
-0.0070229  0.0249729  0.0000000
-0.0304415  0.0265601  0.0000000
-0.0284946  -0.0286980  0.0000000
-0.0263187  -0.0418534  0.0000000
-0.0294452  -0.0087417  0.0000000
-0.0440185  -0.0148005  0.0000000
0.0106436  -0.0340630  0.0000000
0.0190764  -0.0452627  0.0000000
0.0105048  -0.0218518  0.0000000
-0.0079927  -0.0317658  0.0000000
0.0276251  -0.0034767  0.0000000
0.0389900  0.0024105  0.0000000
0.0052668  0.0079460  0.0000000
-0.0008272  0.0011078  0.0000000
0.0011546  0.0163529  0.0000000
0.0148390  0.0186285  0.0000000
0.0110306  -0.0107205  0.0000000
-0.0021371  -0.0142825  0.0000000
0.0104669  0.0409941  0.0000000
0.0223765  0.0428442  0.0000000
-0.0262717  0.0235066  0.0000000
-0.0437569  0.0188037  0.0000000
0.0292425  -0.0285059  0.0000000
0.0392129  -0.0259350  0.0000000
-0.0120606  -0.0048665  0.0000000
-0.0131739  -0.0205311  0.0000000
-0.0307922  -0.0192085  0.0000000
-0.0401220  -0.0267633  0.0000000
-0.0260305  -0.0311781  0.0000000
-0.0194967  -0.0313577  0.0000000
0.0116402  0.0160354  0.0000000
0.0254581  0.0118062  0.0000000
-0.0010979  -0.0318126  0.0000000
-0.0072562  -0.0430654  0.0000000
0.0307741  0.0305316  0.0000000
0.0350536  0.0334435  0.0000000
-0.0025463  0.0239191  0.0000000
0.0106352  0.0263337  0.0000000
-0.0228516  0.0222358  0.0000000
-0.0265506  0.0139146  0.0000000
-0.0191267  0.0437290  0.0000000
-0.0298767  0.0360280  0.0000000
0.0333322  -0.0098225  0.0000000
0.0346492  -0.0172274  0.0000000
-0.0134464  -0.0067539  0.0000000
-0.0203047  -0.0107883  0.0000000
0.0019771  0.0146715  0.0000000
-0.0053582  0.0083728  0.0000000
0.0111358  -0.0084942  0.0000000
0.0226280  -0.0138280  0.0000000
0.0383493  0.0013738  0.0000000
0.0480730  0.0056472  0.0000000
0.0323435  0.0244912  0.0000000
0.0306433  0.0186351  0.0000000
0.0201969  0.0328819  0.0000000
0.0222401  0.0220151  0.0000000
0.0028091  -0.0265408  0.0000000
-0.0042356  -0.0225207  0.0000000
-0.0042114  0.0323292  0.0000000
-0.0161247  0.0321827  0.0000000
-0.0395872  -0.0103925  0.0000000
-0.0465657  -0.0078416  0.0000000
0.0363442  0.0174656  0.0000000
0.0352823  0.0114451  0.0000000
0.0317157  0.0269074  0.0000000
0.0403131  0.0256365  0.0000000
0.0188113  -0.0239521  0.0000000
0.0174143  -0.0298426  0.0000000
-0.0246524  -0.0389945  0.0000000
-0.0197843  -0.0450646  0.0000000
0.0387605  -0.0114439  0.0000000
0.0472797  -0.0128777  0.0000000
-0.0326722  0.0231242  0.0000000
-0.0378613  0.0287586  0.0000000
-0.0068430  -0.0418010  0.0000000
-0.0116018  -0.0478224  0.0000000
-0.0202760  0.0238683  0.0000000
-0.0245613  0.0293596  0.0000000
-0.0317291  0.0041057  0.0000000
-0.0325964  0.0094154  0.0000000
-0.0424304  0.0188410  0.0000000
-0.0479366  0.0141764  0.0000000
-0.0035697  0.0350219  0.0000000
0.0034180  0.0323619  0.0000000
0.0012706  0.0011399  0.0000000
-0.0011272  -0.0064847  0.0000000
0.0167597  -0.0394838  0.0000000
0.0241809  -0.0407837  0.0000000
-0.0383555  -0.0223156  0.0000000
-0.0450976  -0.0213634  0.0000000
-0.0294754  -0.0294026  0.0000000
-0.0358843  -0.0346869  0.0000000
0.0344056  -0.0022953  0.0000000
0.0406843  -0.0054259  0.0000000
0.0171851  -0.0227899  0.0000000
0.0246508  -0.0201107  0.0000000
0.0065247  0.0064390  0.0000000
0.0131998  0.0094287  0.0000000
0.0411928  -0.0138699  0.0000000
0.0439256  -0.0207158  0.0000000
0.0244114  -0.0026992  0.0000000
0.0243281  -0.0084037  0.0000000
-0.0303327  -0.0211064  0.0000000
-0.0210859  -0.0221956  0.0000000
0.0107502  -0.0166572  0.0000000
0.0042707  -0.0192495  0.0000000
0.0166984  -0.0008332  0.0000000
0.0201764  0.0047024  0.0000000
0.0201473  0.0026214  0.0000000
0.0261417  0.0057185  0.0000000
-0.0025429  0.0393302  0.0000000
-0.0103610  0.0390260  0.0000000
-0.0276482  -0.0034330  0.0000000
-0.0345449  -0.0037753  0.0000000
-0.0354308  -0.0107159  0.0000000
-0.0376968  -0.0163348  0.0000000
-0.0219127  -0.0230830  0.0000000
-0.0160546  -0.0268916  0.0000000
0.0020277  -0.0275952  0.0000000
-0.0093293  -0.0256896  0.0000000
-0.0058031  -0.0370686  0.0000000
-0.0139882  -0.0359459  0.0000000
-0.0123586  0.0020547  0.0000000
-0.0080530  -0.0003144  0.0000000
0.0113040  -0.0049322  0.0000000
0.0062835  -0.0059420  0.0000000
0.0035851  0.0438732  0.0000000
0.0084035  0.0486344  0.0000000
0.0132139  0.0423858  0.0000000
0.0142375  0.0476106  0.0000000
0.0395721  -0.0037364  0.0000000
0.0470378  -0.0038648  0.0000000
0.0239676  -0.0277874  0.0000000
0.0255181  -0.0334814  0.0000000
0.0394354  0.0251549  0.0000000
0.0445369  0.0224650  0.0000000
-0.0236929  0.0033028  0.0000000
-0.0205981  -0.0047978  0.0000000
-0.0330278  0.0079141  0.0000000
-0.0373528  0.0126425  0.0000000
-0.0066350  -0.0408545  0.0000000
-0.0021477  -0.0455499  0.0000000
0.0244278  0.0319418  0.0000000
0.0271305  0.0377604  0.0000000
-0.0102378  0.0185883  0.0000000
-0.0156663  0.0186094  0.0000000
-0.0405469  0.0020002  0.0000000
-0.0458033  -0.0021554  0.0000000
-0.0093119  -0.0002831  0.0000000
-0.0057637  -0.0043299  0.0000000
-0.0301120  0.0232772  0.0000000
-0.0326173  0.0170371  0.0000000
-0.0299840  -0.0129284  0.0000000
-0.0203405  -0.0167642  0.0000000
-0.0193766  0.0061571  0.0000000
-0.0239186  0.0106633  0.0000000
-0.0339940  -0.0312631  0.0000000
-0.0371873  -0.0299324  0.0000000
0.0438734  0.0053059  0.0000000
0.0475910  0.0117037  0.0000000
-0.0015473  0.0097808  0.0000000
-0.0017014  0.0056866  0.0000000
0.0091349  -0.0402355  0.0000000
0.0123795  -0.0455935  0.0000000
0.0338739  -0.0163987  0.0000000
0.0335434  -0.0220427  0.0000000
0.0007775  -0.0292821  0.0000000
0.0037172  -0.0338930  0.0000000
-0.0122990  0.0006704  0.0000000
-0.0169274  -0.0023024  0.0000000
-0.0440957  0.0036579  0.0000000
-0.0493188  0.0072238  0.0000000
-0.0228095  0.0289585  0.0000000
-0.0239078  0.0342838  0.0000000
-0.0120736  -0.0101348  0.0000000
-0.0078851  -0.0128043  0.0000000
0.0402754  0.0169279  0.0000000
0.0463493  0.0164912  0.0000000
-0.0020390  -0.0328638  0.0000000
0.0014848  -0.0399825  0.0000000
0.0367718  -0.0000939  0.0000000
0.0350284  0.0050042  0.0000000
-0.0040845  0.0082930  0.0000000
-0.0064483  0.0045302  0.0000000
0.0434719  -0.0049874  0.0000000
0.0452451  -0.0087670  0.0000000
0.0143589  0.0377493  0.0000000
0.0109776  0.0313992  0.0000000
0.0256971  0.0316598  0.0000000
0.0270627  0.0256490  0.0000000
0.0130363  0.0329807  0.0000000
0.0147654  0.0289928  0.0000000
0.0455276  -0.0035915  0.0000000
0.0499573  0.0001739  0.0000000
-0.0373541  0.0040231  0.0000000
-0.0415344  0.0096430  0.0000000
0.0326678  -0.0135955  0.0000000
0.0278928  -0.0177853  0.0000000
-0.0006958  0.0201360  0.0000000
-0.0049246  0.0167870  0.0000000
0.0225439  0.0234976  0.0000000
0.0253790  0.0182311  0.0000000
0.0257718  -0.0324208  0.0000000
0.0292887  -0.0390269  0.0000000
-0.0353069  0.0276817  0.0000000
-0.0345693  0.0322536  0.0000000
-0.0114075  -0.0383597  0.0000000
-0.0151319  -0.0422259  0.0000000
0.0047003  -0.0188729  0.0000000
-0.0003336  -0.0198118  0.0000000
0.0095061  -0.0362417  0.0000000
0.0059858  -0.0376497  0.0000000
0.0303373  -0.0030041  0.0000000
0.0309168  0.0031509  0.0000000
-0.0365774  0.0223394  0.0000000
-0.0412229  0.0251792  0.0000000
0.0320211  -0.0314593  0.0000000
0.0363840  -0.0332109  0.0000000
0.0197836  -0.0015796  0.0000000
0.0199722  -0.0071833  0.0000000
-0.0242195  -0.0352468  0.0000000
-0.0204369  -0.0370579  0.0000000
-0.0290858  -0.0076799  0.0000000
-0.0247046  -0.0110049  0.0000000
0.0241954  -0.0304418  0.0000000
0.0211062  -0.0333732  0.0000000
0.0272293  0.0353107  0.0000000
0.0322721  0.0377359  0.0000000
0.0126904  0.0083258  0.0000000
0.0171963  0.0075738  0.0000000
0.0085374  0.0040277  0.0000000
0.0054017  -0.0002493  0.0000000
-0.0113433  -0.0143100  0.0000000
-0.0080223  -0.0180015  0.0000000
-0.0303792  -0.0297747  0.0000000
-0.0313858  -0.0388414  0.0000000
-0.0415798  -0.0002641  0.0000000
-0.0400324  -0.0036252  0.0000000
0.0184413  0.0149214  0.0000000
0.0204029  0.0173850  0.0000000
-0.0216383  -0.0172950  0.0000000
-0.0182224  -0.0197879  0.0000000
0.0299080  -0.0060150  0.0000000
0.0278621  -0.0102824  0.0000000
0.0349306  -0.0188934  0.0000000
0.0385797  -0.0216198  0.0000000
-0.0140957  0.0109267  0.0000000
-0.0200813  0.0126013  0.0000000
-0.0069871  -0.0036139  0.0000000
-0.0046520  -0.0084284  0.0000000
0.0074148  0.0239379  0.0000000
0.0105168  0.0225498  0.0000000
0.0039780  -0.0115631  0.0000000
0.0021590  -0.0097917  0.0000000
-0.0241693  0.0309240  0.0000000
-0.0295238  0.0325890  0.0000000
-0.0083820  -0.0016154  0.0000000
-0.0047716  -0.0009638  0.0000000
-0.0238316  0.0088746  0.0000000
-0.0287565  0.0101431  0.0000000
0.0114050  -0.0027950  0.0000000
0.0143283  -0.0052166  0.0000000
-0.0095678  -0.0172967  0.0000000
-0.0086499  -0.0215252  0.0000000
-0.0218213  0.0228888  0.0000000
-0.0204738  0.0176263  0.0000000
0.0247456  0.0055841  0.0000000
0.0308150  0.0105785  0.0000000
0.0225603  -0.0022513  0.0000000
0.0245966  0.0008058  0.0000000
0.0027635  0.0248276  0.0000000
0.0054662  0.0276780  0.0000000
0.0341313  0.0315071  0.0000000
0.0386998  0.0304709  0.0000000
-0.0111476  0.0337159  0.0000000
-0.0139736  0.0368090  0.0000000
0.0074214  -0.0443212  0.0000000
0.0086346  -0.0487295  0.0000000
-0.0433860  0.0033264  0.0000000
-0.0497564  -0.0000730  0.0000000
-0.0121668  0.0147575  0.0000000
-0.0085635  0.0120319  0.0000000
0.0302690  -0.0173178  0.0000000
0.0299467  -0.0210379  0.0000000
0.0103488  0.0018576  0.0000000
0.0151686  0.0046430  0.0000000
0.0152421  0.0087622  0.0000000
0.0169393  0.0112095  0.0000000
-0.0141101  -0.0419873  0.0000000
-0.0161287  -0.0458297  0.0000000
-0.0169637  -0.0104298  0.0000000
-0.0175796  -0.0142067  0.0000000
-0.0133241  0.0124591  0.0000000
-0.0093663  0.0078315  0.0000000
0.0039509  0.0106362  0.0000000
0.0077325  0.0116613  0.0000000
0.0098384  -0.0282654  0.0000000
0.0061363  -0.0302687  0.0000000
-0.0040267  0.0269456  0.0000000
0.0007501  0.0284546  0.0000000
0.0319625  -0.0082995  0.0000000
0.0355070  -0.0069525  0.0000000
-0.0453034  -0.0018324  0.0000000
-0.0489924  -0.0032737  0.0000000
0.0204020  0.0278459  0.0000000
0.0159047  0.0236944  0.0000000
-0.0125924  -0.0198769  0.0000000
-0.0134159  -0.0254856  0.0000000
-0.0123241  0.0245311  0.0000000
-0.0146423  0.0288217  0.0000000
0.0219051  -0.0262533  0.0000000
0.0253933  -0.0239709  0.0000000
-0.0082966  -0.0127581  0.0000000
-0.0057602  -0.0150588  0.0000000
-0.0397317  0.0192760  0.0000000
-0.0394776  0.0156975  0.0000000
0.0177187  -0.0294036  0.0000000
0.0177452  -0.0337261  0.0000000
0.0221187  0.0047669  0.0000000
0.0215479  0.0089945  0.0000000
-0.0208034  -0.0313218  0.0000000
-0.0142028  -0.0320460  0.0000000
0.0173450  -0.0134693  0.0000000
0.0173679  -0.0157476  0.0000000
0.0452928  0.0046305  0.0000000
0.0473379  0.0022924  0.0000000
-0.0058173  0.0273671  0.0000000
-0.0103652  0.0293871  0.0000000
0.0172779  0.0353156  0.0000000
0.0220103  0.0387938  0.0000000
0.0070260  0.0424337  0.0000000
0.0064368  0.0375897  0.0000000
-0.0157799  0.0436288  0.0000000
-0.0191629  0.0384142  0.0000000
0.0068693  0.0386050  0.0000000
0.0069133  0.0309211  0.0000000
-0.0287901  0.0029907  0.0000000
-0.0287427  0.0069740  0.0000000
-0.0176500  0.0072988  0.0000000
-0.0166494  0.0043988  0.0000000
-0.0154133  0.0332824  0.0000000
-0.0195009  0.0338944  0.0000000
-0.0437121  -0.0125427  0.0000000
-0.0480463  -0.0127040  0.0000000
0.0095431  0.0160989  0.0000000
0.0116398  0.0127783  0.0000000
0.0075911  -0.0424589  0.0000000
0.0044124  -0.0423851  0.0000000
-0.0051624  0.0051820  0.0000000
-0.0044390  0.0019153  0.0000000
0.0002294  0.0182445  0.0000000
0.0058599  0.0203024  0.0000000
-0.0128875  -0.0377359  0.0000000
-0.0164635  -0.0383836  0.0000000
0.0387029  0.0171430  0.0000000
0.0412099  0.0114207  0.0000000
-0.0295975  -0.0241430  0.0000000
-0.0339952  -0.0268982  0.0000000
-0.0113952  0.0162898  0.0000000
-0.0169807  0.0152725  0.0000000
-0.0246839  0.0195879  0.0000000
-0.0282930  0.0192082  0.0000000
0.0006136  -0.0037417  0.0000000
0.0027291  -0.0058572  0.0000000
0.0453894  -0.0070986  0.0000000
0.0489492  -0.0084298  0.0000000
0.0376749  -0.0111196  0.0000000
0.0407094  -0.0088532  0.0000000
-0.0338287  0.0101106  0.0000000
-0.0324004  0.0127317  0.0000000
0.0003238  -0.0017911  0.0000000
-0.0027578  -0.0031440  0.0000000
-0.0409335  0.0091599  0.0000000
-0.0424819  0.0129462  0.0000000
-0.0211031  0.0050154  0.0000000
-0.0191210  -0.0000198  0.0000000
0.0099630  -0.0271682  0.0000000
0.0140072  -0.0294342  0.0000000
0.0191876  -0.0056642  0.0000000
0.0177088  -0.0080400  0.0000000
0.0186957  -0.0391050  0.0000000
0.0204972  -0.0371469  0.0000000
0.0403520  -0.0039866  0.0000000
0.0432201  -0.0002803  0.0000000
0.0243831  -0.0000698  0.0000000
0.0272706  0.0025075  0.0000000
0.0180787  0.0244104  0.0000000
0.0185917  0.0207964  0.0000000
-0.0091577  -0.0372301  0.0000000
-0.0106568  -0.0343660  0.0000000
-0.0139145  0.0243985  0.0000000
-0.0145025  0.0215722  0.0000000
0.0406803  0.0038162  0.0000000
0.0397985  0.0073002  0.0000000
-0.0034929  0.0169569  0.0000000
-0.0052079  0.0135502  0.0000000
-0.0019268  0.0419152  0.0000000
0.0020813  0.0404004  0.0000000
0.0187783  -0.0144004  0.0000000
0.0202355  -0.0171396  0.0000000
-0.0164591  0.0241864  0.0000000
-0.0184648  0.0289100  0.0000000
-0.0191652  -0.0320297  0.0000000
-0.0179904  -0.0349312  0.0000000
0.0031614  0.0122503  0.0000000
0.0016143  0.0092896  0.0000000
-0.0303073  -0.0154404  0.0000000
-0.0339219  -0.0158519  0.0000000
0.0271437  -0.0335472  0.0000000
0.0294364  -0.0332603  0.0000000
0.0008919  -0.0000325  0.0000000
0.0036398  -0.0027268  0.0000000
-0.0339791  0.0040727  0.0000000
-0.0346660  0.0006328  0.0000000
-0.0282232  -0.0051318  0.0000000
-0.0246324  -0.0065855  0.0000000
0.0288784  -0.0097236  0.0000000
0.0287363  -0.0133369  0.0000000
-0.0044348  -0.0445046  0.0000000
-0.0038246  -0.0494115  0.0000000
-0.0418907  0.0189280  0.0000000
-0.0442365  0.0221309  0.0000000
-0.0239752  -0.0236222  0.0000000
-0.0227883  -0.0271414  0.0000000
-0.0326614  0.0195987  0.0000000
-0.0355735  0.0180221  0.0000000
-0.0409360  0.0082306  0.0000000
-0.0449757  0.0091303  0.0000000
0.0103215  -0.0317439  0.0000000
0.0070388  -0.0336385  0.0000000
-0.0080601  -0.0271585  0.0000000
-0.0110415  -0.0293271  0.0000000
0.0001762  -0.0119731  0.0000000
-0.0017873  -0.0101248  0.0000000
0.0366426  -0.0282239  0.0000000
0.0388432  -0.0294181  0.0000000
-0.0134392  0.0048374  0.0000000
-0.0091075  0.0047880  0.0000000
-0.0305013  -0.0169477  0.0000000
-0.0269073  -0.0187347  0.0000000
-0.0105481  -0.0062844  0.0000000
-0.0080987  -0.0080827  0.0000000
0.0310755  0.0194186  0.0000000
0.0300812  0.0144955  0.0000000
0.0016217  0.0345620  0.0000000
0.0031695  0.0356154  0.0000000
0.0189967  -0.0072471  0.0000000
0.0197477  -0.0100816  0.0000000
0.0145831  -0.0209305  0.0000000
0.0175901  -0.0189825  0.0000000
-0.0436619  -0.0143227  0.0000000
-0.0432221  -0.0178898  0.0000000
-0.0194963  0.0125239  0.0000000
-0.0231587  0.0140011  0.0000000
0.0271325  -0.0282185  0.0000000
0.0294505  -0.0243935  0.0000000
0.0245380  0.0211765  0.0000000
0.0268362  0.0212872  0.0000000
-0.0084718  0.0467531  0.0000000
-0.0101304  0.0485914  0.0000000
-0.0253742  -0.0144607  0.0000000
-0.0225995  -0.0131268  0.0000000
0.0035723  -0.0464922  0.0000000
0.0009222  -0.0458857  0.0000000
-0.0267155  0.0164895  0.0000000
-0.0291658  0.0155787  0.0000000
0.0108624  -0.0142825  0.0000000
0.0138775  -0.0165038  0.0000000
-0.0348929  -0.0213901  0.0000000
-0.0346767  -0.0239109  0.0000000
-0.0318394  -0.0095314  0.0000000
-0.0341685  -0.0068735  0.0000000
-0.0299899  0.0264424  0.0000000
-0.0323100  0.0292598  0.0000000
-0.0008740  -0.0376883  0.0000000
-0.0023626  -0.0399319  0.0000000
-0.0255792  -0.0334656  0.0000000
-0.0275110  -0.0358117  0.0000000
0.0358880  -0.0206918  0.0000000
0.0360981  -0.0231501  0.0000000
0.0024989  0.0041262  0.0000000
-0.0005437  0.0036397  0.0000000
-0.0179858  0.0240592  0.0000000
-0.0177779  0.0209140  0.0000000
-0.0223980  0.0041591  0.0000000
-0.0257657  0.0054489  0.0000000
0.0128021  0.0390472  0.0000000
0.0162522  0.0393023  0.0000000
-0.0016211  0.0220276  0.0000000
-0.0045666  0.0212280  0.0000000
0.0232658  -0.0325599  0.0000000
0.0231541  -0.0365801  0.0000000
0.0345079  -0.0178956  0.0000000
0.0387663  -0.0186947  0.0000000

LINES  511  1533
2  0  10
2  10  476
2  476  477
2  476  350
2  350  351
2  350  58
2  58  59
2  58  11
2  10  6
2  6  144
2  144  145
2  144  348
2  348  36
2  36  146
2  146  147
2  146  37
2  36  504
2  504  204
2  204  346
2  346  347
2  346  72
2  72  160
2  160  244
2  244  245
2  244  161
2  160  206
2  206  52
2  52  82
2  82  152
2  152  153
2  152  83
2  82  70
2  70  460
2  460  461
2  460  71
2  70  80
2  80  372
2  372  373
2  372  194
2  194  195
2  194  7
2  80  81
2  52  290
2  290  53
2  290  291
2  206  207
2  72  322
2  322  218
2  218  73
2  218  474
2  474  219
2  474  475
2  322  404
2  404  323
2  404  405
2  204  208
2  208  205
2  208  209
2  504  505
2  348  352
2  352  349
2  352  353
2  6  414
2  414  128
2  128  100
2  100  76
2  76  2
2  2  344
2  344  345
2  344  18
2  18  326
2  326  327
2  326  408
2  408  418
2  418  419
2  418  500
2  500  94
2  94  190
2  190  272
2  272  273
2  272  191
2  190  95
2  94  282
2  282  56
2  56  378
2  378  379
2  378  482
2  482  57
2  482  483
2  56  38
2  38  168
2  168  442
2  442  443
2  442  169
2  168  90
2  90  222
2  222  223
2  222  91
2  90  232
2  232  332
2  332  333
2  332  438
2  438  98
2  98  39
2  98  99
2  438  439
2  232  233
2  38  490
2  490  19
2  490  491
2  282  283
2  500  501
2  408  409
2  18  162
2  162  376
2  376  377
2  376  298
2  298  299
2  298  310
2  310  264
2  264  470
2  470  471
2  470  265
2  264  14
2  14  454
2  454  455
2  454  140
2  140  166
2  166  274
2  274  275
2  274  266
2  266  267
2  266  167
2  166  141
2  140  186
2  186  42
2  42  62
2  62  308
2  308  309
2  308  63
2  62  192
2  192  250
2  250  280
2  280  281
2  280  251
2  250  324
2  324  43
2  324  325
2  192  330
2  330  193
2  330  331
2  42  458
2  458  15
2  458  459
2  186  187
2  14  356
2  356  172
2  172  392
2  392  393
2  392  502
2  502  154
2  154  4
2  4  130
2  130  131
2  130  432
2  432  240
2  240  22
2  22  488
2  488  489
2  488  132
2  132  133
2  132  78
2  78  79
2  78  360
2  360  468
2  468  469
2  468  23
2  360  361
2  22  170
2  170  424
2  424  425
2  424  456
2  456  44
2  44  120
2  120  440
2  440  441
2  440  134
2  134  135
2  134  121
2  120  374
2  374  20
2  20  46
2  46  338
2  338  420
2  420  421
2  420  339
2  338  47
2  46  494
2  494  238
2  238  86
2  86  21
2  86  87
2  238  239
2  494  495
2  20  108
2  108  5
2  108  252
2  252  174
2  174  109
2  174  175
2  252  253
2  374  375
2  44  486
2  486  106
2  106  45
2  106  107
2  486  487
2  456  457
2  170  478
2  478  258
2  258  171
2  258  259
2  478  479
2  240  241
2  432  433
2  4  354
2  354  96
2  96  430
2  430  431
2  430  212
2  212  444
2  444  445
2  444  390
2  390  391
2  390  213
2  212  164
2  164  254
2  254  255
2  254  320
2  320  165
2  320  321
2  164  296
2  296  188
2  188  3
2  188  189
2  296  297
2  96  156
2  156  97
2  156  386
2  386  157
2  386  387
2  354  355
2  154  155
2  502  503
2  172  276
2  276  173
2  276  277
2  356  357
2  310  311
2  162  163
2  2  316
2  316  54
2  54  506
2  506  507
2  506  216
2  216  412
2  412  413
2  412  217
2  216  368
2  368  32
2  32  64
2  64  178
2  178  179
2  178  200
2  200  65
2  200  366
2  366  201
2  366  367
2  64  422
2  422  312
2  312  30
2  30  114
2  114  246
2  246  304
2  304  305
2  304  247
2  246  115
2  114  248
2  248  302
2  302  303
2  302  8
2  8  278
2  278  279
2  278  142
2  142  143
2  142  66
2  66  340
2  340  341
2  340  416
2  416  67
2  416  417
2  66  34
2  34  270
2  270  271
2  270  450
2  450  35
2  450  451
2  34  484
2  484  122
2  122  16
2  16  466
2  466  467
2  466  112
2  112  113
2  112  84
2  84  334
2  334  335
2  334  85
2  84  328
2  328  150
2  150  472
2  472  473
2  472  40
2  40  452
2  452  453
2  452  41
2  40  234
2  234  17
2  234  235
2  150  242
2  242  220
2  220  151
2  220  426
2  426  221
2  426  427
2  242  508
2  508  243
2  508  509
2  328  329
2  16  26
2  26  12
2  12  394
2  394  395
2  394  314
2  314  315
2  314  446
2  446  24
2  24  104
2  104  398
2  398  399
2  398  105
2  104  25
2  24  228
2  228  180
2  180  364
2  364  365
2  364  294
2  294  295
2  294  480
2  480  13
2  480  481
2  180  181
2  228  229
2  446  447
2  12  1
2  26  74
2  74  136
2  136  448
2  448  449
2  448  137
2  136  184
2  184  50
2  50  27
2  50  196
2  196  138
2  138  158
2  158  436
2  436  437
2  436  159
2  158  92
2  92  51
2  92  93
2  138  406
2  406  224
2  224  370
2  370  371
2  370  139
2  224  306
2  306  225
2  306  307
2  406  407
2  196  492
2  492  197
2  492  493
2  184  185
2  74  75
2  122  226
2  226  123
2  226  227
2  484  485
2  8  124
2  124  236
2  236  396
2  396  464
2  464  465
2  464  397
2  396  237
2  236  286
2  286  118
2  118  28
2  28  260
2  260  434
2  434  435
2  434  261
2  260  318
2  318  60
2  60  214
2  214  300
2  300  301
2  300  215
2  214  182
2  182  510
2  510  511
2  510  262
2  262  496
2  496  497
2  496  263
2  262  183
2  182  61
2  60  384
2  384  88
2  88  9
2  88  116
2  116  89
2  116  117
2  384  385
2  318  319
2  28  230
2  230  110
2  110  198
2  198  199
2  198  68
2  68  29
2  68  410
2  410  176
2  176  342
2  342  343
2  342  69
2  176  177
2  410  411
2  110  148
2  148  111
2  148  400
2  400  202
2  202  210
2  210  211
2  210  149
2  202  382
2  382  203
2  382  383
2  400  401
2  230  231
2  118  119
2  286  402
2  402  287
2  402  403
2  124  126
2  126  125
2  126  336
2  336  284
2  284  127
2  284  285
2  336  337
2  248  249
2  30  498
2  498  102
2  102  31
2  102  428
2  428  388
2  388  380
2  380  103
2  380  381
2  388  389
2  428  429
2  498  499
2  312  313
2  422  423
2  32  362
2  362  48
2  48  33
2  48  256
2  256  49
2  256  257
2  362  363
2  368  369
2  54  288
2  288  268
2  268  55
2  268  269
2  288  289
2  316  317
2  76  292
2  292  358
2  358  359
2  358  77
2  292  293
2  100  462
2  462  101
2  462  463
2  128  129
2  414  415

CELL_DATA  511
scalars raio float
LOOKUP_TABLE default
1.1937057
0.2755734
0.1199081
0.2677881
0.1705869
0.2423788
0.2224541
0.1478330
1.1887900
0.5407890
0.1440794
0.5373583
0.5296921
0.2062061
0.1518541
0.1739819
0.5190634
0.5163946
0.5063852
0.1527053
0.5017134
0.4612715
0.2167282
0.1877355
0.1527393
0.4447378
0.4368863
0.4176462
0.2540939
0.2347010
0.1514939
0.3835949
0.2427819
0.2239406
0.1454928
0.3479713
0.3176010
0.2335648
0.2682140
0.2530158
0.1457735
0.2161395
0.2192467
0.1556160
0.1891798
0.1660343
0.3041786
0.2599743
0.1432489
0.2445836
0.2008113
0.1869459
0.2194838
0.1634989
0.1837347
0.1987689
0.1470066
0.1672239
0.1289880
0.1870709
0.1073886
0.1744413
1.1502503
1.1497411
1.1489279
1.1474753
1.1443256
0.8627661
0.1354964
0.8616507
0.4974115
0.1408668
0.4936167
0.4909294
0.1471628
0.4864813
0.4832294
0.2493029
0.2349952
0.1975757
0.1739609
0.1360383
0.4600134
0.4538917
0.2442387
0.1572626
0.2202209
0.1745030
0.1750749
0.4289758
0.4117933
0.2260314
0.1849640
0.1734703
0.3877126
0.2452934
0.2063181
0.1814761
0.3517527
0.3321529
0.1906045
0.3097545
0.2729494
0.1645859
0.2513354
0.2109344
0.1901695
0.2088594
0.1170819
0.1957950
0.1565243
0.1318755
0.1250107
0.8024182
0.8009048
0.1457981
0.7992910
0.1385477
0.7979010
0.7961056
0.1946514
0.1811659
0.1126393
0.7922076
0.4633368
0.1457976
0.4584738
0.2675979
0.2587343
0.1690658
0.2320059
0.2089310
0.1498936
0.1225777
0.4258149
0.4179437
0.4043260
0.2421364
0.1952554
0.1890107
0.3730178
0.3389436
0.2592455
0.2266772
0.1794239
0.2781310
0.1620085
0.2584480
0.2349148
0.1301755
0.2207540
0.1904342
0.1124235
0.1763590
0.1613805
0.7354002
0.7340290
0.7284861
0.1530352
0.7262279
0.7245183
0.7211231
0.6534625
0.1718930
0.6494735
0.6467808
0.6430736
0.3633426
0.1552850
0.3536310
0.1878183
0.3350073
0.2139691
0.3029405
0.2586720
0.2394985
0.1528425
0.2189321
0.6018197
0.5812534
0.1585157
0.5772967
0.5728224
0.5438902
0.3054348
0.1977382
0.2748483
0.2538715
0.1638677
0.5096750
0.5011213
0.4438865
0.3290192
0.3120928
0.2326896
0.2610979
0.1734593
0.3728769
0.3554615
0.3259982
0.2286323
0.2831205
0.2173525
0.1906547
0.3373191
0.1408909
0.3289186
0.2798173
0.2254433
0.2186346
0.2391393
0.1871479
0.3002439
0.2825890
0.2139964
0.2337186
0.1650882
0.1643467
0.2784594
0.2559741
0.1721302
0.2268383
0.1689148
0.1666209
0.1502717
0.4578224
0.4524026
0.4232869
0.1541347
0.4163617
0.2782143
0.2029985
0.2361506
0.2171556
0.1430802
0.3699794
0.2894503
0.1885122
0.2598789
0.1505562
0.2418079
0.2977384
0.2463061
0.1474907
0.2272394
0.2253994
0.2558683
0.1397160
0.2411519
0.1999106
0.1820619
0.1498926
0.1745896
0.1392249
0.2071726
0.1407703
0.1827400
0.1304626
0.1506852
0.1428930
0.9495879
0.9486618
0.9438601
0.1216584
0.9431859
0.1818949
0.1595374
0.1250944
0.9409255
0.9397605
0.9309395
0.2590930
0.1534461
0.2397434
0.1282369
0.2268304
0.1594254
0.1967720
0.9242012
0.9233776
0.9224327
0.9115831
0.2338649
0.2212002
0.1811620
0.1695901
0.1253060
0.9064231
0.9050973
0.1515065
0.9036800
0.7763405
0.1402209
0.7748127
0.1523789
0.7728432
0.2598889
0.1571414
0.2391237
0.1950121
0.1842691
0.7629201
0.2640072
0.1563053
0.2443116
0.1984590
0.1891375
0.7522328
0.7503737
0.7437122
0.5058281
0.1534691
0.5010744
0.1927332
0.4913834
0.2368352
0.2223514
0.1318325
0.4723139
0.4641743
0.3847892
0.1938352
0.3676405
0.3013345
0.2293006
0.2482847
0.2815905
0.2038286
0.2402077
0.3504403
0.2987599
0.1516682
0.2851171
0.2492933
0.1973382
0.2539143
0.1866691
0.2144763
0.1749417
0.6557136
0.4875625
0.4826520
0.1682510
0.4757382
0.1659689
0.4689074
0.4616790
0.3271423
0.2836083
0.2017183
0.2444299
0.2302065
0.3987340
0.3865339
0.3625861
0.1939014
0.3430703
0.2231388
0.3081758
0.2519158
0.2368167
0.2160361
0.1780319
0.1674463
0.1513476
0.5496183
0.5410609
0.2693761
0.2294493
0.1954564
0.5178200
0.5099759
0.2009677
0.4993532
0.4754323
0.3659425
0.3027317
0.2587119
0.2184758
0.2770285
0.1651174
0.2559061
0.3881082
0.3709963
0.2790144
0.2354990
0.2053576
0.3084356
0.1959410
0.2794356
0.1948405
0.2573840
0.2092743
0.1990411
0.1838549
0.1969108
0.2234234
0.1217499
0.2106567
0.1465615
0.6463902
0.6278252
0.2320712
0.2129239
0.1817219
0.1540001
0.1417040
0.6170723
0.6105437
0.6064344
0.4827341
0.2178536
0.1935408
0.1456484
0.4674667
0.4606201
0.3935976
0.2603752
0.2172009
0.1949176
0.3512164
0.3428637
0.2123366
0.3132300
0.2783440
0.2168979
0.2248042
0.2092881
0.1445134
0.3324833
0.3122018
0.1431128
0.3018375
0.2341128
0.2447865
0.1849268
0.1641496
0.4799123
0.4716497
0.3760095
0.1889328
0.3593851
0.1358077
0.3528008
0.3331179
0.2762321
0.2205570
0.2179183
0.2513927
0.1908117
0.3726728
0.1547152
0.3635636
0.3440711
0.2765128
0.2490721
0.1785302
0.2695781
0.1901593
0.2334001
0.1941864
0.1777002
0.1658816
0.1946869
0.1228171
0.1768020
0.2827644
0.1357452
0.2719262
0.2451457
0.1469522
0.2261029
0.1751689
0.1483251
0.3013668
0.2911542
0.1367930
0.2807195
0.2602840
0.2332166
0.1869908
0.1831782
0.1704144
0.1649494
0.1390643
0.1341551
0.1282360
0.2850123
0.2706748
0.1571437
0.2517236
0.2192905
0.1754963
0.1491985
0.1456585
0.2345192
0.2143865
0.1736231
0.1665471
0.1449401
0.1357711
0.2315038
0.2079036
0.1848673
0.1387022
0.1506756
0.1791030
0.1491494
0.1343929
0.1477094
0.1264169
