# vtk DataFile Version 3.0
vtk output
ASCII
DATASET POLYDATA
POINTS  192  float
0.0000000  0.0500000  0.0000000
0.0123338  -0.0257925  0.0000000
-0.0050136  0.0289633  0.0000000
-0.0452107  0.0037871  0.0000000
-0.0258511  0.0018757  0.0000000
-0.0299338  -0.0305092  0.0000000
-0.0010027  0.0457927  0.0000000
0.0408443  0.0165721  0.0000000
0.0115564  0.0004108  0.0000000
0.0394525  -0.0124345  0.0000000
-0.0005014  0.0478963  0.0000000
-0.0216003  0.0444594  0.0000000
0.0104610  -0.0227794  0.0000000
0.0018921  -0.0495410  0.0000000
-0.0150602  0.0090114  0.0000000
-0.0104088  -0.0067664  0.0000000
0.0106801  -0.0181414  0.0000000
0.0323737  -0.0338711  0.0000000
-0.0070229  0.0249729  0.0000000
-0.0304415  0.0265601  0.0000000
-0.0284946  -0.0286980  0.0000000
-0.0263187  -0.0418534  0.0000000
-0.0294452  -0.0087417  0.0000000
-0.0440185  -0.0148005  0.0000000
0.0106436  -0.0340630  0.0000000
0.0190764  -0.0452627  0.0000000
0.0105048  -0.0218518  0.0000000
-0.0079927  -0.0317658  0.0000000
0.0276251  -0.0034767  0.0000000
0.0389900  0.0024105  0.0000000
0.0052668  0.0079460  0.0000000
-0.0008272  0.0011078  0.0000000
0.0011546  0.0163529  0.0000000
0.0148390  0.0186285  0.0000000
0.0110306  -0.0107205  0.0000000
-0.0021371  -0.0142825  0.0000000
0.0104669  0.0409941  0.0000000
0.0223765  0.0428442  0.0000000
-0.0262717  0.0235066  0.0000000
-0.0437569  0.0188037  0.0000000
0.0292425  -0.0285059  0.0000000
0.0392129  -0.0259350  0.0000000
-0.0120606  -0.0048665  0.0000000
-0.0131739  -0.0205311  0.0000000
-0.0307922  -0.0192085  0.0000000
-0.0401220  -0.0267633  0.0000000
-0.0260305  -0.0311781  0.0000000
-0.0194967  -0.0313577  0.0000000
0.0116402  0.0160354  0.0000000
0.0254581  0.0118062  0.0000000
-0.0010979  -0.0318126  0.0000000
-0.0072562  -0.0430654  0.0000000
0.0307741  0.0305316  0.0000000
0.0350536  0.0334435  0.0000000
-0.0025463  0.0239191  0.0000000
0.0106352  0.0263337  0.0000000
-0.0228516  0.0222358  0.0000000
-0.0265506  0.0139146  0.0000000
-0.0191267  0.0437290  0.0000000
-0.0298767  0.0360280  0.0000000
0.0333322  -0.0098225  0.0000000
0.0346492  -0.0172274  0.0000000
-0.0134464  -0.0067539  0.0000000
-0.0203047  -0.0107883  0.0000000
0.0019771  0.0146715  0.0000000
-0.0053582  0.0083728  0.0000000
0.0111358  -0.0084942  0.0000000
0.0226280  -0.0138280  0.0000000
0.0383493  0.0013738  0.0000000
0.0480730  0.0056472  0.0000000
0.0323435  0.0244912  0.0000000
0.0306433  0.0186351  0.0000000
0.0201969  0.0328819  0.0000000
0.0222401  0.0220151  0.0000000
0.0028091  -0.0265408  0.0000000
-0.0042356  -0.0225207  0.0000000
-0.0042114  0.0323292  0.0000000
-0.0161247  0.0321827  0.0000000
-0.0395872  -0.0103925  0.0000000
-0.0465657  -0.0078416  0.0000000
0.0363442  0.0174656  0.0000000
0.0352823  0.0114451  0.0000000
0.0317157  0.0269074  0.0000000
0.0403131  0.0256365  0.0000000
0.0188113  -0.0239521  0.0000000
0.0174143  -0.0298426  0.0000000
-0.0246524  -0.0389945  0.0000000
-0.0197843  -0.0450646  0.0000000
0.0387605  -0.0114439  0.0000000
0.0472797  -0.0128777  0.0000000
-0.0326722  0.0231242  0.0000000
-0.0378613  0.0287586  0.0000000
-0.0068430  -0.0418010  0.0000000
-0.0116018  -0.0478224  0.0000000
-0.0202760  0.0238683  0.0000000
-0.0245613  0.0293596  0.0000000
-0.0317291  0.0041057  0.0000000
-0.0325964  0.0094154  0.0000000
-0.0424304  0.0188410  0.0000000
-0.0479366  0.0141764  0.0000000
-0.0035697  0.0350219  0.0000000
0.0034180  0.0323619  0.0000000
0.0012706  0.0011399  0.0000000
-0.0011272  -0.0064847  0.0000000
0.0167597  -0.0394838  0.0000000
0.0241809  -0.0407837  0.0000000
-0.0383555  -0.0223156  0.0000000
-0.0450976  -0.0213634  0.0000000
-0.0294754  -0.0294026  0.0000000
-0.0358843  -0.0346869  0.0000000
0.0344056  -0.0022953  0.0000000
0.0406843  -0.0054259  0.0000000
0.0171851  -0.0227899  0.0000000
0.0246508  -0.0201107  0.0000000
0.0065247  0.0064390  0.0000000
0.0131998  0.0094287  0.0000000
0.0411928  -0.0138699  0.0000000
0.0439256  -0.0207158  0.0000000
0.0244114  -0.0026992  0.0000000
0.0243281  -0.0084037  0.0000000
-0.0303327  -0.0211064  0.0000000
-0.0210859  -0.0221956  0.0000000
0.0107502  -0.0166572  0.0000000
0.0042707  -0.0192495  0.0000000
0.0166984  -0.0008332  0.0000000
0.0201764  0.0047024  0.0000000
0.0201473  0.0026214  0.0000000
0.0261417  0.0057185  0.0000000
-0.0025429  0.0393302  0.0000000
-0.0103610  0.0390260  0.0000000
-0.0276482  -0.0034330  0.0000000
-0.0345449  -0.0037753  0.0000000
-0.0354308  -0.0107159  0.0000000
-0.0376968  -0.0163348  0.0000000
-0.0219127  -0.0230830  0.0000000
-0.0160546  -0.0268916  0.0000000
0.0020277  -0.0275952  0.0000000
-0.0093293  -0.0256896  0.0000000
-0.0058031  -0.0370686  0.0000000
-0.0139882  -0.0359459  0.0000000
-0.0123586  0.0020547  0.0000000
-0.0080530  -0.0003144  0.0000000
0.0113040  -0.0049322  0.0000000
0.0062835  -0.0059420  0.0000000
0.0035851  0.0438732  0.0000000
0.0084035  0.0486344  0.0000000
0.0132139  0.0423858  0.0000000
0.0142375  0.0476106  0.0000000
0.0395721  -0.0037364  0.0000000
0.0470378  -0.0038648  0.0000000
0.0239676  -0.0277874  0.0000000
0.0255181  -0.0334814  0.0000000
0.0394354  0.0251549  0.0000000
0.0445369  0.0224650  0.0000000
-0.0236929  0.0033028  0.0000000
-0.0205981  -0.0047978  0.0000000
-0.0330278  0.0079141  0.0000000
-0.0373528  0.0126425  0.0000000
-0.0066350  -0.0408545  0.0000000
-0.0021477  -0.0455499  0.0000000
0.0244278  0.0319418  0.0000000
0.0271305  0.0377604  0.0000000
-0.0102378  0.0185883  0.0000000
-0.0156663  0.0186094  0.0000000
-0.0405469  0.0020002  0.0000000
-0.0458033  -0.0021554  0.0000000
-0.0093119  -0.0002831  0.0000000
-0.0057637  -0.0043299  0.0000000
-0.0301120  0.0232772  0.0000000
-0.0326173  0.0170371  0.0000000
-0.0299840  -0.0129284  0.0000000
-0.0203405  -0.0167642  0.0000000
-0.0193766  0.0061571  0.0000000
-0.0239186  0.0106633  0.0000000
-0.0339940  -0.0312631  0.0000000
-0.0371873  -0.0299324  0.0000000
0.0438734  0.0053059  0.0000000
0.0475910  0.0117037  0.0000000
-0.0015473  0.0097808  0.0000000
-0.0017014  0.0056866  0.0000000
0.0091349  -0.0402355  0.0000000
0.0123795  -0.0455935  0.0000000
0.0338739  -0.0163987  0.0000000
0.0335434  -0.0220427  0.0000000
0.0007775  -0.0292821  0.0000000
0.0037172  -0.0338930  0.0000000
-0.0122990  0.0006704  0.0000000
-0.0169274  -0.0023024  0.0000000
-0.0440957  0.0036579  0.0000000
-0.0493188  0.0072238  0.0000000
-0.0228095  0.0289585  0.0000000
-0.0239078  0.0342838  0.0000000

LINES  191  573
2  0  10
2  10  58
2  58  59
2  58  11
2  10  6
2  6  144
2  144  145
2  144  36
2  36  146
2  146  147
2  146  37
2  36  72
2  72  160
2  160  161
2  160  52
2  52  82
2  82  152
2  152  153
2  152  83
2  82  70
2  70  71
2  70  80
2  80  7
2  80  81
2  52  53
2  72  73
2  6  128
2  128  100
2  100  76
2  76  2
2  2  18
2  18  94
2  94  190
2  190  191
2  190  95
2  94  56
2  56  57
2  56  38
2  38  168
2  168  169
2  168  90
2  90  91
2  90  98
2  98  39
2  98  99
2  38  19
2  18  162
2  162  14
2  14  140
2  140  166
2  166  167
2  166  141
2  140  186
2  186  42
2  42  62
2  62  63
2  62  43
2  42  15
2  186  187
2  14  172
2  172  154
2  154  4
2  4  130
2  130  131
2  130  22
2  22  132
2  132  133
2  132  78
2  78  79
2  78  23
2  22  170
2  170  44
2  44  120
2  120  134
2  134  135
2  134  121
2  120  20
2  20  46
2  46  47
2  46  86
2  86  21
2  86  87
2  20  108
2  108  5
2  108  174
2  174  109
2  174  175
2  44  106
2  106  45
2  106  107
2  170  171
2  4  96
2  96  164
2  164  165
2  164  188
2  188  3
2  188  189
2  96  156
2  156  97
2  156  157
2  154  155
2  172  173
2  162  163
2  2  54
2  54  32
2  32  64
2  64  178
2  178  179
2  178  65
2  64  30
2  30  114
2  114  115
2  114  8
2  8  142
2  142  143
2  142  66
2  66  67
2  66  34
2  34  35
2  34  122
2  122  16
2  16  112
2  112  113
2  112  84
2  84  85
2  84  150
2  150  40
2  40  41
2  40  17
2  150  151
2  16  26
2  26  12
2  12  24
2  24  104
2  104  105
2  104  25
2  24  180
2  180  13
2  180  181
2  12  1
2  26  74
2  74  136
2  136  137
2  136  184
2  184  50
2  50  27
2  50  138
2  138  158
2  158  159
2  158  92
2  92  51
2  92  93
2  138  139
2  184  185
2  74  75
2  122  123
2  8  124
2  124  118
2  118  28
2  28  60
2  60  182
2  182  183
2  182  61
2  60  88
2  88  9
2  88  116
2  116  89
2  116  117
2  28  110
2  110  68
2  68  29
2  68  176
2  176  69
2  176  177
2  110  148
2  148  111
2  148  149
2  118  119
2  124  126
2  126  125
2  126  127
2  30  102
2  102  31
2  102  103
2  32  48
2  48  33
2  48  49
2  54  55
2  76  77
2  100  101
2  128  129

CELL_DATA  191
scalars raio float
LOOKUP_TABLE default
0.9279949
0.2385093
0.2189026
0.1454729
0.9227131
0.4255681
0.1443389
0.4199598
0.2070238
0.1524562
0.1746718
0.4024721
0.3888915
0.1681804
0.3781109
0.3661612
0.2616375
0.2416688
0.1559915
0.3147534
0.1939851
0.2879797
0.2200888
0.2364638
0.1705978
0.1854632
0.8914934
0.8901375
0.8887871
0.8868314
0.6758730
0.3850556
0.2153436
0.1908785
0.1447283
0.3611518
0.1819508
0.3450503
0.3320561
0.1848767
0.3117348
0.1984259
0.2822329
0.1701837
0.2598837
0.1647120
0.6313437
0.6288797
0.3422060
0.2119327
0.1924051
0.1338173
0.3126275
0.2960119
0.2826051
0.2079581
0.2385617
0.1498817
0.1665210
0.5931077
0.5892938
0.5840750
0.5417290
0.1727281
0.5358113
0.3020601
0.1911897
0.2740026
0.2220720
0.2126771
0.5016850
0.4902962
0.4574741
0.2762226
0.2551409
0.1646871
0.4210891
0.3613988
0.2257904
0.3292449
0.2309093
0.2859402
0.3017083
0.1452317
0.2900460
0.2336843
0.2266268
0.2807173
0.2125790
0.2321706
0.2033236
0.3427688
0.3049287
0.2121026
0.2659513
0.1592545
0.2453639
0.2284286
0.1453395
0.2068403
0.1753211
0.1587280
0.1431740
0.7298170
0.7264254
0.7174892
0.2051455
0.1629956
0.1626522
0.7118548
0.7045905
0.1597967
0.7018400
0.6112565
0.1534278
0.6080173
0.1953848
0.6012160
0.2010286
0.5936288
0.5885165
0.3768487
0.1972660
0.3578934
0.1889375
0.3394026
0.3120875
0.2622897
0.2311626
0.2056735
0.5317016
0.3869518
0.3787448
0.2989385
0.2427852
0.2314808
0.3022631
0.2572460
0.2196155
0.1533880
0.4520509
0.4382245
0.2231941
0.4180072
0.4045688
0.2086212
0.3851613
0.3496225
0.2532276
0.2981305
0.1776949
0.2753992
0.2432991
0.1896414
0.2018141
0.1749875
0.4895503
0.4744666
0.4673412
0.3720345
0.2659062
0.2436469
0.1630832
0.3197523
0.1465739
0.3091373
0.2397748
0.2507066
0.3698169
0.3187737
0.1411917
0.3092596
0.2270937
0.2614246
0.2629694
0.1705902
0.2364569
0.1679838
0.2190741
0.1454630
0.1951868
0.2219323
0.1431449
0.1999828
0.2408612
0.1576846
0.2158206
0.1753800
0.1666055
0.1474379
0.1477877
