# vtk DataFile Version 3.0
vtk output
ASCII
DATASET POLYDATA
POINTS  448  float
0.0000000  0.0500000  0.0000000
0.0123338  -0.0257925  0.0000000
-0.0050136  0.0289633  0.0000000
-0.0452107  0.0037871  0.0000000
-0.0258511  0.0018757  0.0000000
-0.0299338  -0.0305092  0.0000000
-0.0010027  0.0457927  0.0000000
0.0408443  0.0165721  0.0000000
0.0115564  0.0004108  0.0000000
0.0394525  -0.0124345  0.0000000
-0.0005014  0.0478963  0.0000000
-0.0216003  0.0444594  0.0000000
0.0104610  -0.0227794  0.0000000
0.0018921  -0.0495410  0.0000000
-0.0150602  0.0090114  0.0000000
-0.0104088  -0.0067664  0.0000000
0.0106801  -0.0181414  0.0000000
0.0323737  -0.0338711  0.0000000
-0.0070229  0.0249729  0.0000000
-0.0304415  0.0265601  0.0000000
-0.0284946  -0.0286980  0.0000000
-0.0263187  -0.0418534  0.0000000
-0.0294452  -0.0087417  0.0000000
-0.0440185  -0.0148005  0.0000000
0.0106436  -0.0340630  0.0000000
0.0190764  -0.0452627  0.0000000
0.0105048  -0.0218518  0.0000000
-0.0079927  -0.0317658  0.0000000
0.0276251  -0.0034767  0.0000000
0.0389900  0.0024105  0.0000000
0.0052668  0.0079460  0.0000000
-0.0008272  0.0011078  0.0000000
0.0011546  0.0163529  0.0000000
0.0148390  0.0186285  0.0000000
0.0110306  -0.0107205  0.0000000
-0.0021371  -0.0142825  0.0000000
0.0104669  0.0409941  0.0000000
0.0223765  0.0428442  0.0000000
-0.0262717  0.0235066  0.0000000
-0.0437569  0.0188037  0.0000000
0.0292425  -0.0285059  0.0000000
0.0392129  -0.0259350  0.0000000
-0.0120606  -0.0048665  0.0000000
-0.0131739  -0.0205311  0.0000000
-0.0307922  -0.0192085  0.0000000
-0.0401220  -0.0267633  0.0000000
-0.0260305  -0.0311781  0.0000000
-0.0194967  -0.0313577  0.0000000
0.0116402  0.0160354  0.0000000
0.0254581  0.0118062  0.0000000
-0.0010979  -0.0318126  0.0000000
-0.0072562  -0.0430654  0.0000000
0.0307741  0.0305316  0.0000000
0.0350536  0.0334435  0.0000000
-0.0025463  0.0239191  0.0000000
0.0106352  0.0263337  0.0000000
-0.0228516  0.0222358  0.0000000
-0.0265506  0.0139146  0.0000000
-0.0191267  0.0437290  0.0000000
-0.0298767  0.0360280  0.0000000
0.0333322  -0.0098225  0.0000000
0.0346492  -0.0172274  0.0000000
-0.0134464  -0.0067539  0.0000000
-0.0203047  -0.0107883  0.0000000
0.0019771  0.0146715  0.0000000
-0.0053582  0.0083728  0.0000000
0.0111358  -0.0084942  0.0000000
0.0226280  -0.0138280  0.0000000
0.0383493  0.0013738  0.0000000
0.0480730  0.0056472  0.0000000
0.0323435  0.0244912  0.0000000
0.0306433  0.0186351  0.0000000
0.0201969  0.0328819  0.0000000
0.0222401  0.0220151  0.0000000
0.0028091  -0.0265408  0.0000000
-0.0042356  -0.0225207  0.0000000
-0.0042114  0.0323292  0.0000000
-0.0161247  0.0321827  0.0000000
-0.0395872  -0.0103925  0.0000000
-0.0465657  -0.0078416  0.0000000
0.0363442  0.0174656  0.0000000
0.0352823  0.0114451  0.0000000
0.0317157  0.0269074  0.0000000
0.0403131  0.0256365  0.0000000
0.0188113  -0.0239521  0.0000000
0.0174143  -0.0298426  0.0000000
-0.0246524  -0.0389945  0.0000000
-0.0197843  -0.0450646  0.0000000
0.0387605  -0.0114439  0.0000000
0.0472797  -0.0128777  0.0000000
-0.0326722  0.0231242  0.0000000
-0.0378613  0.0287586  0.0000000
-0.0068430  -0.0418010  0.0000000
-0.0116018  -0.0478224  0.0000000
-0.0202760  0.0238683  0.0000000
-0.0245613  0.0293596  0.0000000
-0.0317291  0.0041057  0.0000000
-0.0325964  0.0094154  0.0000000
-0.0424304  0.0188410  0.0000000
-0.0479366  0.0141764  0.0000000
-0.0035697  0.0350219  0.0000000
0.0034180  0.0323619  0.0000000
0.0012706  0.0011399  0.0000000
-0.0011272  -0.0064847  0.0000000
0.0167597  -0.0394838  0.0000000
0.0241809  -0.0407837  0.0000000
-0.0383555  -0.0223156  0.0000000
-0.0450976  -0.0213634  0.0000000
-0.0294754  -0.0294026  0.0000000
-0.0358843  -0.0346869  0.0000000
0.0344056  -0.0022953  0.0000000
0.0406843  -0.0054259  0.0000000
0.0171851  -0.0227899  0.0000000
0.0246508  -0.0201107  0.0000000
0.0065247  0.0064390  0.0000000
0.0131998  0.0094287  0.0000000
0.0411928  -0.0138699  0.0000000
0.0439256  -0.0207158  0.0000000
0.0244114  -0.0026992  0.0000000
0.0243281  -0.0084037  0.0000000
-0.0303327  -0.0211064  0.0000000
-0.0210859  -0.0221956  0.0000000
0.0107502  -0.0166572  0.0000000
0.0042707  -0.0192495  0.0000000
0.0166984  -0.0008332  0.0000000
0.0201764  0.0047024  0.0000000
0.0201473  0.0026214  0.0000000
0.0261417  0.0057185  0.0000000
-0.0025429  0.0393302  0.0000000
-0.0103610  0.0390260  0.0000000
-0.0276482  -0.0034330  0.0000000
-0.0345449  -0.0037753  0.0000000
-0.0354308  -0.0107159  0.0000000
-0.0376968  -0.0163348  0.0000000
-0.0219127  -0.0230830  0.0000000
-0.0160546  -0.0268916  0.0000000
0.0020277  -0.0275952  0.0000000
-0.0093293  -0.0256896  0.0000000
-0.0058031  -0.0370686  0.0000000
-0.0139882  -0.0359459  0.0000000
-0.0123586  0.0020547  0.0000000
-0.0080530  -0.0003144  0.0000000
0.0113040  -0.0049322  0.0000000
0.0062835  -0.0059420  0.0000000
0.0035851  0.0438732  0.0000000
0.0084035  0.0486344  0.0000000
0.0132139  0.0423858  0.0000000
0.0142375  0.0476106  0.0000000
0.0395721  -0.0037364  0.0000000
0.0470378  -0.0038648  0.0000000
0.0239676  -0.0277874  0.0000000
0.0255181  -0.0334814  0.0000000
0.0394354  0.0251549  0.0000000
0.0445369  0.0224650  0.0000000
-0.0236929  0.0033028  0.0000000
-0.0205981  -0.0047978  0.0000000
-0.0330278  0.0079141  0.0000000
-0.0373528  0.0126425  0.0000000
-0.0066350  -0.0408545  0.0000000
-0.0021477  -0.0455499  0.0000000
0.0244278  0.0319418  0.0000000
0.0271305  0.0377604  0.0000000
-0.0102378  0.0185883  0.0000000
-0.0156663  0.0186094  0.0000000
-0.0405469  0.0020002  0.0000000
-0.0458033  -0.0021554  0.0000000
-0.0093119  -0.0002831  0.0000000
-0.0057637  -0.0043299  0.0000000
-0.0301120  0.0232772  0.0000000
-0.0326173  0.0170371  0.0000000
-0.0299840  -0.0129284  0.0000000
-0.0203405  -0.0167642  0.0000000
-0.0193766  0.0061571  0.0000000
-0.0239186  0.0106633  0.0000000
-0.0339940  -0.0312631  0.0000000
-0.0371873  -0.0299324  0.0000000
0.0438734  0.0053059  0.0000000
0.0475910  0.0117037  0.0000000
-0.0015473  0.0097808  0.0000000
-0.0017014  0.0056866  0.0000000
0.0091349  -0.0402355  0.0000000
0.0123795  -0.0455935  0.0000000
0.0338739  -0.0163987  0.0000000
0.0335434  -0.0220427  0.0000000
0.0007775  -0.0292821  0.0000000
0.0037172  -0.0338930  0.0000000
-0.0122990  0.0006704  0.0000000
-0.0169274  -0.0023024  0.0000000
-0.0440957  0.0036579  0.0000000
-0.0493188  0.0072238  0.0000000
-0.0228095  0.0289585  0.0000000
-0.0239078  0.0342838  0.0000000
-0.0120736  -0.0101348  0.0000000
-0.0078851  -0.0128043  0.0000000
0.0402754  0.0169279  0.0000000
0.0463493  0.0164912  0.0000000
-0.0020390  -0.0328638  0.0000000
0.0014848  -0.0399825  0.0000000
0.0367718  -0.0000939  0.0000000
0.0350284  0.0050042  0.0000000
-0.0040845  0.0082930  0.0000000
-0.0064483  0.0045302  0.0000000
0.0434719  -0.0049874  0.0000000
0.0452451  -0.0087670  0.0000000
0.0143589  0.0377493  0.0000000
0.0109776  0.0313992  0.0000000
0.0256971  0.0316598  0.0000000
0.0270627  0.0256490  0.0000000
0.0130363  0.0329807  0.0000000
0.0147654  0.0289928  0.0000000
0.0455276  -0.0035915  0.0000000
0.0499573  0.0001739  0.0000000
-0.0373541  0.0040231  0.0000000
-0.0415344  0.0096430  0.0000000
0.0326678  -0.0135955  0.0000000
0.0278928  -0.0177853  0.0000000
-0.0006958  0.0201360  0.0000000
-0.0049246  0.0167870  0.0000000
0.0225439  0.0234976  0.0000000
0.0253790  0.0182311  0.0000000
0.0257718  -0.0324208  0.0000000
0.0292887  -0.0390269  0.0000000
-0.0353069  0.0276817  0.0000000
-0.0345693  0.0322536  0.0000000
-0.0114075  -0.0383597  0.0000000
-0.0151319  -0.0422259  0.0000000
0.0047003  -0.0188729  0.0000000
-0.0003336  -0.0198118  0.0000000
0.0095061  -0.0362417  0.0000000
0.0059858  -0.0376497  0.0000000
0.0303373  -0.0030041  0.0000000
0.0309168  0.0031509  0.0000000
-0.0365774  0.0223394  0.0000000
-0.0412229  0.0251792  0.0000000
0.0320211  -0.0314593  0.0000000
0.0363840  -0.0332109  0.0000000
0.0197836  -0.0015796  0.0000000
0.0199722  -0.0071833  0.0000000
-0.0242195  -0.0352468  0.0000000
-0.0204369  -0.0370579  0.0000000
-0.0290858  -0.0076799  0.0000000
-0.0247046  -0.0110049  0.0000000
0.0241954  -0.0304418  0.0000000
0.0211062  -0.0333732  0.0000000
0.0272293  0.0353107  0.0000000
0.0322721  0.0377359  0.0000000
0.0126904  0.0083258  0.0000000
0.0171963  0.0075738  0.0000000
0.0085374  0.0040277  0.0000000
0.0054017  -0.0002493  0.0000000
-0.0113433  -0.0143100  0.0000000
-0.0080223  -0.0180015  0.0000000
-0.0303792  -0.0297747  0.0000000
-0.0313858  -0.0388414  0.0000000
-0.0415798  -0.0002641  0.0000000
-0.0400324  -0.0036252  0.0000000
0.0184413  0.0149214  0.0000000
0.0204029  0.0173850  0.0000000
-0.0216383  -0.0172950  0.0000000
-0.0182224  -0.0197879  0.0000000
0.0299080  -0.0060150  0.0000000
0.0278621  -0.0102824  0.0000000
0.0349306  -0.0188934  0.0000000
0.0385797  -0.0216198  0.0000000
-0.0140957  0.0109267  0.0000000
-0.0200813  0.0126013  0.0000000
-0.0069871  -0.0036139  0.0000000
-0.0046520  -0.0084284  0.0000000
0.0074148  0.0239379  0.0000000
0.0105168  0.0225498  0.0000000
0.0039780  -0.0115631  0.0000000
0.0021590  -0.0097917  0.0000000
-0.0241693  0.0309240  0.0000000
-0.0295238  0.0325890  0.0000000
-0.0083820  -0.0016154  0.0000000
-0.0047716  -0.0009638  0.0000000
-0.0238316  0.0088746  0.0000000
-0.0287565  0.0101431  0.0000000
0.0114050  -0.0027950  0.0000000
0.0143283  -0.0052166  0.0000000
-0.0095678  -0.0172967  0.0000000
-0.0086499  -0.0215252  0.0000000
-0.0218213  0.0228888  0.0000000
-0.0204738  0.0176263  0.0000000
0.0247456  0.0055841  0.0000000
0.0308150  0.0105785  0.0000000
0.0225603  -0.0022513  0.0000000
0.0245966  0.0008058  0.0000000
0.0027635  0.0248276  0.0000000
0.0054662  0.0276780  0.0000000
0.0341313  0.0315071  0.0000000
0.0386998  0.0304709  0.0000000
-0.0111476  0.0337159  0.0000000
-0.0139736  0.0368090  0.0000000
0.0074214  -0.0443212  0.0000000
0.0086346  -0.0487295  0.0000000
-0.0433860  0.0033264  0.0000000
-0.0497564  -0.0000730  0.0000000
-0.0121668  0.0147575  0.0000000
-0.0085635  0.0120319  0.0000000
0.0302690  -0.0173178  0.0000000
0.0299467  -0.0210379  0.0000000
0.0103488  0.0018576  0.0000000
0.0151686  0.0046430  0.0000000
0.0152421  0.0087622  0.0000000
0.0169393  0.0112095  0.0000000
-0.0141101  -0.0419873  0.0000000
-0.0161287  -0.0458297  0.0000000
-0.0169637  -0.0104298  0.0000000
-0.0175796  -0.0142067  0.0000000
-0.0133241  0.0124591  0.0000000
-0.0093663  0.0078315  0.0000000
0.0039509  0.0106362  0.0000000
0.0077325  0.0116613  0.0000000
0.0098384  -0.0282654  0.0000000
0.0061363  -0.0302687  0.0000000
-0.0040267  0.0269456  0.0000000
0.0007501  0.0284546  0.0000000
0.0319625  -0.0082995  0.0000000
0.0355070  -0.0069525  0.0000000
-0.0453034  -0.0018324  0.0000000
-0.0489924  -0.0032737  0.0000000
0.0204020  0.0278459  0.0000000
0.0159047  0.0236944  0.0000000
-0.0125924  -0.0198769  0.0000000
-0.0134159  -0.0254856  0.0000000
-0.0123241  0.0245311  0.0000000
-0.0146423  0.0288217  0.0000000
0.0219051  -0.0262533  0.0000000
0.0253933  -0.0239709  0.0000000
-0.0082966  -0.0127581  0.0000000
-0.0057602  -0.0150588  0.0000000
-0.0397317  0.0192760  0.0000000
-0.0394776  0.0156975  0.0000000
0.0177187  -0.0294036  0.0000000
0.0177452  -0.0337261  0.0000000
0.0221187  0.0047669  0.0000000
0.0215479  0.0089945  0.0000000
-0.0208034  -0.0313218  0.0000000
-0.0142028  -0.0320460  0.0000000
0.0173450  -0.0134693  0.0000000
0.0173679  -0.0157476  0.0000000
0.0452928  0.0046305  0.0000000
0.0473379  0.0022924  0.0000000
-0.0058173  0.0273671  0.0000000
-0.0103652  0.0293871  0.0000000
0.0172779  0.0353156  0.0000000
0.0220103  0.0387938  0.0000000
0.0070260  0.0424337  0.0000000
0.0064368  0.0375897  0.0000000
-0.0157799  0.0436288  0.0000000
-0.0191629  0.0384142  0.0000000
0.0068693  0.0386050  0.0000000
0.0069133  0.0309211  0.0000000
-0.0287901  0.0029907  0.0000000
-0.0287427  0.0069740  0.0000000
-0.0176500  0.0072988  0.0000000
-0.0166494  0.0043988  0.0000000
-0.0154133  0.0332824  0.0000000
-0.0195009  0.0338944  0.0000000
-0.0437121  -0.0125427  0.0000000
-0.0480463  -0.0127040  0.0000000
0.0095431  0.0160989  0.0000000
0.0116398  0.0127783  0.0000000
0.0075911  -0.0424589  0.0000000
0.0044124  -0.0423851  0.0000000
-0.0051624  0.0051820  0.0000000
-0.0044390  0.0019153  0.0000000
0.0002294  0.0182445  0.0000000
0.0058599  0.0203024  0.0000000
-0.0128875  -0.0377359  0.0000000
-0.0164635  -0.0383836  0.0000000
0.0387029  0.0171430  0.0000000
0.0412099  0.0114207  0.0000000
-0.0295975  -0.0241430  0.0000000
-0.0339952  -0.0268982  0.0000000
-0.0113952  0.0162898  0.0000000
-0.0169807  0.0152725  0.0000000
-0.0246839  0.0195879  0.0000000
-0.0282930  0.0192082  0.0000000
0.0006136  -0.0037417  0.0000000
0.0027291  -0.0058572  0.0000000
0.0453894  -0.0070986  0.0000000
0.0489492  -0.0084298  0.0000000
0.0376749  -0.0111196  0.0000000
0.0407094  -0.0088532  0.0000000
-0.0338287  0.0101106  0.0000000
-0.0324004  0.0127317  0.0000000
0.0003238  -0.0017911  0.0000000
-0.0027578  -0.0031440  0.0000000
-0.0409335  0.0091599  0.0000000
-0.0424819  0.0129462  0.0000000
-0.0211031  0.0050154  0.0000000
-0.0191210  -0.0000198  0.0000000
0.0099630  -0.0271682  0.0000000
0.0140072  -0.0294342  0.0000000
0.0191876  -0.0056642  0.0000000
0.0177088  -0.0080400  0.0000000
0.0186957  -0.0391050  0.0000000
0.0204972  -0.0371469  0.0000000
0.0403520  -0.0039866  0.0000000
0.0432201  -0.0002803  0.0000000
0.0243831  -0.0000698  0.0000000
0.0272706  0.0025075  0.0000000
0.0180787  0.0244104  0.0000000
0.0185917  0.0207964  0.0000000
-0.0091577  -0.0372301  0.0000000
-0.0106568  -0.0343660  0.0000000
-0.0139145  0.0243985  0.0000000
-0.0145025  0.0215722  0.0000000
0.0406803  0.0038162  0.0000000
0.0397985  0.0073002  0.0000000
-0.0034929  0.0169569  0.0000000
-0.0052079  0.0135502  0.0000000
-0.0019268  0.0419152  0.0000000
0.0020813  0.0404004  0.0000000
0.0187783  -0.0144004  0.0000000
0.0202355  -0.0171396  0.0000000
-0.0164591  0.0241864  0.0000000
-0.0184648  0.0289100  0.0000000
-0.0191652  -0.0320297  0.0000000
-0.0179904  -0.0349312  0.0000000
0.0031614  0.0122503  0.0000000
0.0016143  0.0092896  0.0000000
-0.0303073  -0.0154404  0.0000000
-0.0339219  -0.0158519  0.0000000
0.0271437  -0.0335472  0.0000000
0.0294364  -0.0332603  0.0000000
0.0008919  -0.0000325  0.0000000
0.0036398  -0.0027268  0.0000000
-0.0339791  0.0040727  0.0000000
-0.0346660  0.0006328  0.0000000
-0.0282232  -0.0051318  0.0000000
-0.0246324  -0.0065855  0.0000000
0.0288784  -0.0097236  0.0000000
0.0287363  -0.0133369  0.0000000
-0.0044348  -0.0445046  0.0000000
-0.0038246  -0.0494115  0.0000000
-0.0418907  0.0189280  0.0000000
-0.0442365  0.0221309  0.0000000
-0.0239752  -0.0236222  0.0000000
-0.0227883  -0.0271414  0.0000000
-0.0326614  0.0195987  0.0000000
-0.0355735  0.0180221  0.0000000
-0.0409360  0.0082306  0.0000000
-0.0449757  0.0091303  0.0000000
0.0103215  -0.0317439  0.0000000
0.0070388  -0.0336385  0.0000000

LINES  447  1341
2  0  10
2  10  350
2  350  351
2  350  58
2  58  59
2  58  11
2  10  6
2  6  144
2  144  145
2  144  348
2  348  36
2  36  146
2  146  147
2  146  37
2  36  204
2  204  346
2  346  347
2  346  72
2  72  160
2  160  244
2  244  245
2  244  161
2  160  206
2  206  52
2  52  82
2  82  152
2  152  153
2  152  83
2  82  70
2  70  71
2  70  80
2  80  372
2  372  373
2  372  194
2  194  195
2  194  7
2  80  81
2  52  290
2  290  53
2  290  291
2  206  207
2  72  322
2  322  218
2  218  73
2  218  219
2  322  404
2  404  323
2  404  405
2  204  208
2  208  205
2  208  209
2  348  352
2  352  349
2  352  353
2  6  414
2  414  128
2  128  100
2  100  76
2  76  2
2  2  344
2  344  345
2  344  18
2  18  326
2  326  327
2  326  408
2  408  418
2  418  419
2  418  94
2  94  190
2  190  272
2  272  273
2  272  191
2  190  95
2  94  282
2  282  56
2  56  378
2  378  379
2  378  57
2  56  38
2  38  168
2  168  442
2  442  443
2  442  169
2  168  90
2  90  222
2  222  223
2  222  91
2  90  232
2  232  332
2  332  333
2  332  438
2  438  98
2  98  39
2  98  99
2  438  439
2  232  233
2  38  19
2  282  283
2  408  409
2  18  162
2  162  376
2  376  377
2  376  298
2  298  299
2  298  310
2  310  264
2  264  265
2  264  14
2  14  140
2  140  166
2  166  274
2  274  275
2  274  266
2  266  267
2  266  167
2  166  141
2  140  186
2  186  42
2  42  62
2  62  308
2  308  309
2  308  63
2  62  192
2  192  250
2  250  280
2  280  281
2  280  251
2  250  324
2  324  43
2  324  325
2  192  330
2  330  193
2  330  331
2  42  15
2  186  187
2  14  356
2  356  172
2  172  392
2  392  393
2  392  154
2  154  4
2  4  130
2  130  131
2  130  432
2  432  240
2  240  22
2  22  132
2  132  133
2  132  78
2  78  79
2  78  360
2  360  23
2  360  361
2  22  170
2  170  424
2  424  425
2  424  44
2  44  120
2  120  440
2  440  441
2  440  134
2  134  135
2  134  121
2  120  374
2  374  20
2  20  46
2  46  338
2  338  420
2  420  421
2  420  339
2  338  47
2  46  238
2  238  86
2  86  21
2  86  87
2  238  239
2  20  108
2  108  5
2  108  252
2  252  174
2  174  109
2  174  175
2  252  253
2  374  375
2  44  106
2  106  45
2  106  107
2  170  258
2  258  171
2  258  259
2  240  241
2  432  433
2  4  354
2  354  96
2  96  430
2  430  431
2  430  212
2  212  444
2  444  445
2  444  390
2  390  391
2  390  213
2  212  164
2  164  254
2  254  255
2  254  320
2  320  165
2  320  321
2  164  296
2  296  188
2  188  3
2  188  189
2  296  297
2  96  156
2  156  97
2  156  386
2  386  157
2  386  387
2  354  355
2  154  155
2  172  276
2  276  173
2  276  277
2  356  357
2  310  311
2  162  163
2  2  316
2  316  54
2  54  216
2  216  412
2  412  413
2  412  217
2  216  368
2  368  32
2  32  64
2  64  178
2  178  179
2  178  200
2  200  65
2  200  366
2  366  201
2  366  367
2  64  422
2  422  312
2  312  30
2  30  114
2  114  246
2  246  304
2  304  305
2  304  247
2  246  115
2  114  248
2  248  302
2  302  303
2  302  8
2  8  278
2  278  279
2  278  142
2  142  143
2  142  66
2  66  340
2  340  341
2  340  416
2  416  67
2  416  417
2  66  34
2  34  270
2  270  271
2  270  35
2  34  122
2  122  16
2  16  112
2  112  113
2  112  84
2  84  334
2  334  335
2  334  85
2  84  328
2  328  150
2  150  40
2  40  41
2  40  234
2  234  17
2  234  235
2  150  242
2  242  220
2  220  151
2  220  426
2  426  221
2  426  427
2  242  243
2  328  329
2  16  26
2  26  12
2  12  394
2  394  395
2  394  314
2  314  315
2  314  446
2  446  24
2  24  104
2  104  398
2  398  399
2  398  105
2  104  25
2  24  228
2  228  180
2  180  364
2  364  365
2  364  294
2  294  295
2  294  13
2  180  181
2  228  229
2  446  447
2  12  1
2  26  74
2  74  136
2  136  137
2  136  184
2  184  50
2  50  27
2  50  196
2  196  138
2  138  158
2  158  436
2  436  437
2  436  159
2  158  92
2  92  51
2  92  93
2  138  406
2  406  224
2  224  370
2  370  371
2  370  139
2  224  306
2  306  225
2  306  307
2  406  407
2  196  197
2  184  185
2  74  75
2  122  226
2  226  123
2  226  227
2  8  124
2  124  236
2  236  396
2  396  397
2  396  237
2  236  286
2  286  118
2  118  28
2  28  260
2  260  434
2  434  435
2  434  261
2  260  318
2  318  60
2  60  214
2  214  300
2  300  301
2  300  215
2  214  182
2  182  262
2  262  263
2  262  183
2  182  61
2  60  384
2  384  88
2  88  9
2  88  116
2  116  89
2  116  117
2  384  385
2  318  319
2  28  230
2  230  110
2  110  198
2  198  199
2  198  68
2  68  29
2  68  410
2  410  176
2  176  342
2  342  343
2  342  69
2  176  177
2  410  411
2  110  148
2  148  111
2  148  400
2  400  202
2  202  210
2  210  211
2  210  149
2  202  382
2  382  203
2  382  383
2  400  401
2  230  231
2  118  119
2  286  402
2  402  287
2  402  403
2  124  126
2  126  125
2  126  336
2  336  284
2  284  127
2  284  285
2  336  337
2  248  249
2  30  102
2  102  31
2  102  428
2  428  388
2  388  380
2  380  103
2  380  381
2  388  389
2  428  429
2  312  313
2  422  423
2  32  362
2  362  48
2  48  33
2  48  256
2  256  49
2  256  257
2  362  363
2  368  369
2  54  288
2  288  268
2  268  55
2  268  269
2  288  289
2  316  317
2  76  292
2  292  358
2  358  359
2  358  77
2  292  293
2  100  101
2  128  129
2  414  415

CELL_DATA  447
scalars raio float
LOOKUP_TABLE default
1.1535876
0.2640259
0.1681903
0.2389736
0.2193287
0.1457560
1.1489589
0.5243857
0.1441042
0.5207328
0.5125514
0.2062531
0.1518886
0.1740215
0.5011676
0.4905082
0.1528337
0.4855116
0.4504293
0.2171772
0.1881245
0.1530557
0.4329288
0.4245718
0.4039000
0.2550807
0.2356124
0.1520823
0.3666590
0.1876265
0.3494906
0.3189877
0.2345846
0.2693851
0.2541205
0.1464099
0.2170832
0.2199689
0.1561286
0.1898029
0.1664173
0.2846316
0.2306598
0.1477722
0.2083558
0.2209563
0.1645958
0.1849673
0.1988455
0.1470633
0.1672883
0.1871173
0.1074152
0.1744845
1.1113298
1.1107842
1.1099126
1.1090462
1.1056718
0.8328791
0.1355240
0.8316812
0.4804128
0.1408551
0.4763422
0.4734567
0.1470756
0.4686778
0.2490827
0.2347876
0.1974012
0.1738073
0.1359181
0.4439446
0.4373808
0.2146760
0.1591773
0.1802914
0.4194139
0.4111994
0.2257053
0.1846972
0.1732201
0.3871534
0.2449396
0.2060205
0.1812143
0.3512453
0.3316739
0.1903296
0.3093078
0.2725558
0.1643485
0.2509729
0.2106302
0.1898952
0.1619888
0.1563744
0.1249825
0.7743928
0.7727670
0.1458110
0.7710327
0.1385555
0.7695384
0.7676077
0.1524241
0.7655991
0.4507488
0.2672731
0.2584203
0.1688606
0.2317243
0.2086774
0.1497116
0.1224289
0.4169545
0.4087712
0.4031016
0.2414032
0.1946641
0.1884384
0.3718883
0.3379172
0.2584605
0.2259908
0.1788806
0.2772888
0.1615180
0.2576654
0.2342035
0.1297813
0.2200856
0.1409935
0.1611479
0.7095091
0.7080363
0.7020767
0.1530001
0.6996463
0.6960065
0.6225497
0.1717679
0.6181601
0.6151940
0.6111094
0.3292982
0.1880402
0.3074408
0.2154884
0.2670881
0.1937260
0.2275513
0.5774136
0.5607400
0.1580312
0.5565245
0.5324585
0.3042816
0.1969917
0.2738106
0.2529130
0.1632491
0.4970301
0.4881284
0.4279979
0.3271930
0.3103606
0.2313982
0.2596487
0.1724966
0.3513522
0.3222295
0.2259892
0.2798475
0.2148398
0.3359155
0.1403046
0.3275500
0.2786530
0.2245052
0.2177249
0.2381443
0.1864312
0.2776681
0.2102699
0.2296487
0.2530314
0.1701514
0.2242306
0.1663946
0.1501313
0.4576990
0.4522808
0.4231729
0.1540932
0.4162495
0.2781394
0.2029438
0.2360870
0.2170971
0.1430417
0.3698797
0.2893724
0.1884614
0.2598089
0.1505157
0.2417428
0.2976582
0.2462397
0.1474510
0.2271782
0.2253387
0.2557994
0.1396784
0.2410869
0.1998568
0.1820129
0.1498522
0.1745406
0.2071384
0.1407471
0.1827099
0.1304457
0.1506840
0.1429105
0.9181252
0.9171336
0.9119872
0.1819967
0.1596267
0.1251644
0.9095648
0.9083155
0.8988419
0.2593113
0.1535754
0.2399454
0.1283450
0.2270215
0.1595597
0.1969378
0.8915894
0.8907017
0.8896830
0.8792562
0.2341617
0.2214809
0.1813919
0.1698053
0.1254651
0.8736850
0.8722515
0.1517445
0.8707180
0.7414022
0.1404760
0.7397174
0.1526695
0.7375433
0.2604175
0.1574610
0.2396100
0.1954087
0.1846438
0.7265583
0.2336301
0.1607728
0.2048530
0.7184150
0.7110860
0.4667082
0.1937435
0.4553024
0.2384063
0.2238264
0.1327070
0.4323788
0.4223197
0.3407259
0.2525462
0.2862253
0.2071835
0.2441615
0.3294761
0.3039795
0.1543180
0.2900984
0.2536487
0.2007859
0.1972741
0.1766399
0.6365268
0.4752117
0.4699884
0.1690176
0.4625863
0.1667887
0.4552427
0.4474164
0.3294600
0.2856176
0.2031473
0.2461615
0.2318374
0.3775175
0.3634115
0.3345889
0.1981286
0.3096131
0.2292152
0.2602990
0.2192389
0.1797587
0.1684843
0.1518280
0.5320179
0.5227717
0.2180763
0.5098029
0.5016165
0.2016334
0.4905127
0.4769280
0.3670937
0.3036841
0.2595259
0.2191631
0.2779001
0.1656369
0.2567112
0.3893292
0.3721634
0.2798922
0.2362399
0.2060037
0.3094060
0.1965574
0.2803147
0.1954535
0.2120621
0.1845051
0.1976012
0.2239537
0.1220388
0.2111567
0.6321391
0.6125657
0.2014638
0.1691004
0.1495025
0.6052141
0.5983697
0.5940535
0.4611202
0.2188923
0.1944637
0.1463429
0.4440549
0.4362993
0.3569059
0.2641653
0.2203625
0.1977549
0.3001073
0.2872013
0.2356501
0.2196951
0.1494695
0.3349822
0.3145482
0.1441884
0.3041060
0.2358724
0.2466263
0.1863167
0.1651963
0.4814430
0.4731541
0.3772088
0.1895354
0.3605314
0.1362409
0.3539261
0.3341804
0.2771132
0.2212605
0.2186134
0.2521946
0.1914203
0.3738615
0.1552087
0.3647232
0.3451686
0.2773947
0.2498666
0.1790997
0.2704379
0.1907658
0.2341445
0.1948058
0.1782670
0.1663435
0.1951871
0.1231327
0.1772562
0.2833340
0.1360187
0.2724741
0.2456396
0.1472483
0.2265584
0.1755218
0.1485367
0.2903221
0.1364021
0.2799172
0.2595402
0.2325501
0.1864564
0.1826547
0.1699274
0.1644780
0.1342943
0.1283592
0.2852274
0.2708790
0.1572623
0.2519136
0.2194560
0.1756287
0.1493111
0.1457541
0.2346118
0.2144711
0.1736916
0.1666129
0.1449973
0.1358100
0.2315434
0.2079391
0.1848989
0.1387259
0.1507014
0.1473495
0.1477233
0.1264258
