# vtk DataFile Version 3.0
vtk output
ASCII
DATASET POLYDATA
POINTS  128  float
0.0000000  0.0000000  0.0287941
-0.0003651  0.0180983  -0.0191554
-0.0065034  0.0001095  0.0078678
-0.0229133  -0.0151218  -0.0048432
-0.0005314  -0.0019044  0.0133952
0.0161787  -0.0139395  -0.0169247
-0.0001594  -0.0005713  0.0241744
0.0108221  0.0161363  0.0120311
0.0014696  -0.0066030  -0.0037803
-0.0077080  -0.0083694  -0.0219572
-0.0047118  -0.0004947  0.0095260
-0.0192646  0.0200716  0.0042305
0.0103083  0.0070338  0.0133019
0.0246752  0.0074955  -0.0007781
-0.0002710  -0.0009713  0.0209406
0.0172991  -0.0153499  0.0150216
0.0016497  -0.0071177  0.0041685
0.0089020  -0.0247103  0.0002435
-0.0002018  -0.0007233  0.0229456
-0.0199784  -0.0052792  0.0172966
0.0083012  -0.0060907  -0.0099539
0.0132603  0.0015152  -0.0145622
-0.0141005  -0.0036047  -0.0027394
-0.0195703  -0.0001002  -0.0191199
0.0154446  0.0102234  0.0036130
0.0163376  0.0180294  -0.0092327
-0.0058041  0.0129218  -0.0047241
-0.0110212  0.0253089  -0.0062196
0.0004719  -0.0043025  0.0091509
-0.0069985  -0.0218576  0.0088186
-0.0018013  -0.0032241  -0.0147553
-0.0023454  0.0069786  -0.0273965
-0.0050543  0.0094560  0.0006137
0.0012999  0.0201970  0.0019233
-0.0006034  -0.0005044  -0.0198218
0.0078046  -0.0034745  -0.0265650
-0.0114543  -0.0029922  0.0040477
-0.0228747  -0.0127599  0.0070993
0.0044199  0.0061952  0.0181740
0.0003987  0.0244020  0.0147086
0.0012021  -0.0060479  0.0060618
0.0233401  -0.0065459  0.0022289
0.0016496  -0.0149894  0.0012674
-0.0045669  -0.0201516  -0.0028283
0.0130296  -0.0093812  0.0015147
0.0181424  -0.0173834  -0.0057974
0.0041750  -0.0187787  -0.0008268
0.0057013  -0.0233082  -0.0117166
0.0122624  0.0082280  0.0069106
0.0084902  0.0057670  -0.0025916
-0.0105368  -0.0059688  0.0194826
-0.0145107  -0.0142506  0.0170338
-0.0000478  -0.0001714  0.0274082
-0.0101073  0.0106170  0.0242324
0.0167557  -0.0077487  0.0004770
0.0197603  -0.0031882  -0.0072749
0.0002486  0.0186562  -0.0000633
0.0048073  0.0269696  -0.0036749
-0.0144072  0.0090215  0.0029972
-0.0227066  0.0099873  -0.0077391
0.0208603  0.0081805  -0.0004526
0.0257770  0.0040096  -0.0119399
-0.0020350  0.0121348  -0.0010227
0.0062852  0.0108471  -0.0097689
-0.0054707  -0.0054597  0.0207061
-0.0060937  -0.0184431  0.0175854
-0.0021557  -0.0179017  -0.0023825
-0.0064379  -0.0199364  -0.0122235
0.0080379  -0.0044271  0.0184473
0.0143435  -0.0009891  0.0171092
-0.0174169  -0.0046017  0.0043269
-0.0229604  -0.0003680  0.0024293
0.0155033  0.0126601  -0.0057479
0.0146338  0.0100047  -0.0151378
-0.0004436  0.0175194  0.0144205
-0.0072051  0.0206293  0.0097191
-0.0017653  -0.0143089  0.0106587
0.0010196  -0.0199766  0.0149158
-0.0103783  0.0062420  0.0073095
-0.0154079  0.0183964  0.0137463
0.0110300  -0.0087945  -0.0149011
0.0112946  -0.0090195  -0.0216474
-0.0187038  -0.0129414  -0.0051902
-0.0179512  -0.0204970  -0.0084866
-0.0058226  -0.0001201  0.0084979
-0.0145351  0.0003538  0.0124056
0.0061864  0.0064468  0.0167124
0.0121272  0.0123334  0.0218104
0.0024072  -0.0161262  0.0006391
0.0010721  -0.0248188  0.0057580
0.0009883  -0.0043899  -0.0075001
0.0043398  0.0026887  -0.0091841
0.0136203  0.0125974  -0.0120447
0.0097720  0.0154709  -0.0175052
-0.0050798  0.0132148  -0.0115826
-0.0078794  0.0095312  -0.0168492
-0.0133066  -0.0034210  -0.0007033
-0.0240145  0.0031791  -0.0048655
0.0090718  0.0068577  0.0143250
0.0231211  0.0004937  0.0147877
0.0018761  0.0155445  0.0145057
0.0067459  0.0252525  0.0077902
-0.0044323  0.0154400  -0.0145413
-0.0095475  0.0196911  -0.0181116
0.0116055  -0.0010534  -0.0153826
0.0144347  0.0032070  -0.0240757
-0.0064290  0.0179324  -0.0061231
-0.0002062  0.0248227  -0.0118327
0.0051855  -0.0041015  0.0200960
0.0084363  -0.0107408  0.0239906
-0.0055868  0.0130097  -0.0067817
-0.0172775  0.0099186  -0.0147642
-0.0046266  0.0147724  -0.0136537
-0.0059092  0.0134829  -0.0218847
-0.0054347  0.0130712  -0.0082220
-0.0021188  0.0065306  -0.0111680
0.0060793  -0.0198622  -0.0076567
0.0092320  -0.0174719  -0.0127740
-0.0182259  -0.0036261  -0.0090672
-0.0241457  -0.0066848  -0.0112982
0.0087439  -0.0090812  0.0037165
0.0119860  -0.0155719  0.0058742
-0.0000717  -0.0039469  -0.0102570
-0.0088371  -0.0128158  -0.0142668
-0.0031230  0.0208636  0.0109509
-0.0042174  0.0267973  0.0060589
-0.0199437  0.0089234  -0.0002907
-0.0270667  0.0078433  0.0004573

LINES  127  381
2  0  52
2  52  53
2  52  6
2  6  38
2  38  100
2  100  101
2  100  74
2  74  124
2  124  125
2  124  75
2  74  39
2  38  86
2  86  98
2  98  99
2  98  12
2  12  48
2  48  49
2  48  24
2  24  72
2  72  92
2  92  93
2  92  73
2  72  25
2  24  60
2  60  13
2  60  61
2  12  7
2  86  87
2  6  18
2  18  14
2  14  4
2  4  28
2  28  76
2  76  77
2  76  29
2  28  40
2  40  16
2  16  42
2  42  66
2  66  67
2  66  43
2  42  88
2  88  46
2  46  17
2  46  116
2  116  47
2  116  117
2  88  89
2  16  8
2  8  90
2  90  91
2  90  122
2  122  30
2  30  34
2  34  35
2  34  31
2  30  9
2  122  123
2  8  20
2  20  80
2  80  81
2  80  5
2  20  104
2  104  21
2  104  105
2  40  120
2  120  44
2  44  54
2  54  55
2  54  41
2  44  45
2  120  121
2  4  10
2  10  84
2  84  85
2  84  2
2  2  36
2  36  70
2  70  71
2  70  37
2  36  96
2  96  22
2  22  118
2  118  119
2  118  23
2  22  82
2  82  3
2  82  83
2  96  97
2  2  32
2  32  26
2  26  110
2  110  111
2  110  114
2  114  94
2  94  95
2  94  112
2  112  102
2  102  1
2  102  103
2  112  113
2  114  115
2  26  106
2  106  27
2  106  107
2  32  62
2  62  56
2  56  33
2  56  57
2  62  63
2  10  78
2  78  58
2  58  11
2  58  126
2  126  59
2  126  127
2  78  79
2  14  108
2  108  68
2  68  15
2  68  69
2  108  109
2  18  64
2  64  50
2  50  19
2  50  51
2  64  65

CELL_DATA  127
scalars raio float
LOOKUP_TABLE default
0.7197223
0.1573592
0.7172062
0.4198568
0.2770270
0.1785828
0.2496787
0.2247505
0.1906441
0.1641588
0.1614971
0.3750420
0.3665958
0.1738982
0.3530587
0.3429029
0.1680040
0.3288955
0.2814666
0.2554305
0.2158164
0.1877052
0.1779318
0.2368014
0.1560167
0.2116497
0.1545228
0.1516030
0.6656235
0.6547213
0.6445200
0.5022892
0.2157810
0.1667224
0.1755795
0.4886478
0.4547461
0.3217939
0.2190370
0.1953312
0.1451177
0.2836155
0.2610200
0.1683311
0.2352175
0.1821087
0.1910611
0.1713360
0.3930391
0.3234938
0.1593047
0.3100667
0.2862831
0.2574849
0.2052701
0.2034537
0.1855894
0.1851501
0.2994936
0.2360377
0.1846876
0.1899257
0.2393556
0.1594011
0.2129939
0.2828906
0.2662516
0.2317976
0.1909272
0.1764597
0.1858572
0.1555596
0.5204985
0.4876739
0.1503751
0.4828606
0.3508895
0.2180144
0.1652910
0.1801475
0.3202357
0.3001628
0.2380106
0.1784074
0.1983574
0.2384678
0.1753328
0.2014142
0.1796337
0.4109048
0.3721298
0.3367841
0.1944154
0.3136335
0.2959107
0.1741094
0.2742753
0.2385878
0.1865050
0.1921456
0.1917610
0.1703106
0.2371272
0.1827326
0.1933821
0.2613225
0.2275482
0.1473820
0.2047264
0.1823512
0.2925238
0.2682148
0.1844594
0.2352472
0.1890494
0.1843224
0.1790086
0.2346216
0.2123269
0.1818723
0.1526405
0.1495246
0.2424678
0.2123319
0.1689854
0.1680680
0.1672914
