# vtk DataFile Version 3.0
vtk output
ASCII
DATASET POLYDATA
POINTS  1024  float
0.0000000  0.0000000  0.0287941
-0.0003651  0.0180983  -0.0191554
-0.0065034  0.0001095  0.0078678
-0.0229133  -0.0151218  -0.0048432
-0.0005314  -0.0019044  0.0133952
0.0161787  -0.0139395  -0.0169247
-0.0001594  -0.0005713  0.0241744
0.0108221  0.0161363  0.0120311
0.0014696  -0.0066030  -0.0037803
-0.0077080  -0.0083694  -0.0219572
-0.0047118  -0.0004947  0.0095260
-0.0192646  0.0200716  0.0042305
0.0103083  0.0070338  0.0133019
0.0246752  0.0074955  -0.0007781
-0.0002710  -0.0009713  0.0209406
0.0172991  -0.0153499  0.0150216
0.0016497  -0.0071177  0.0041685
0.0089020  -0.0247103  0.0002435
-0.0002018  -0.0007233  0.0229456
-0.0199784  -0.0052792  0.0172966
0.0083012  -0.0060907  -0.0099539
0.0132603  0.0015152  -0.0145622
-0.0141005  -0.0036047  -0.0027394
-0.0195703  -0.0001002  -0.0191199
0.0154446  0.0102234  0.0036130
0.0163376  0.0180294  -0.0092327
-0.0058041  0.0129218  -0.0047241
-0.0110212  0.0253089  -0.0062196
0.0004719  -0.0043025  0.0091509
-0.0069985  -0.0218576  0.0088186
-0.0018013  -0.0032241  -0.0147553
-0.0023454  0.0069786  -0.0273965
-0.0050543  0.0094560  0.0006137
0.0012999  0.0201970  0.0019233
-0.0006034  -0.0005044  -0.0198218
0.0078046  -0.0034745  -0.0265650
-0.0114543  -0.0029922  0.0040477
-0.0228747  -0.0127599  0.0070993
0.0044199  0.0061952  0.0181740
0.0003987  0.0244020  0.0147086
0.0012021  -0.0060479  0.0060618
0.0233401  -0.0065459  0.0022289
0.0016496  -0.0149894  0.0012674
-0.0045669  -0.0201516  -0.0028283
0.0130296  -0.0093812  0.0015147
0.0181424  -0.0173834  -0.0057974
0.0041750  -0.0187787  -0.0008268
0.0057013  -0.0233082  -0.0117166
0.0122624  0.0082280  0.0069106
0.0084902  0.0057670  -0.0025916
-0.0105368  -0.0059688  0.0194826
-0.0145107  -0.0142506  0.0170338
-0.0000478  -0.0001714  0.0274082
-0.0101073  0.0106170  0.0242324
0.0167557  -0.0077487  0.0004770
0.0197603  -0.0031882  -0.0072749
0.0002486  0.0186562  -0.0000633
0.0048073  0.0269696  -0.0036749
-0.0144072  0.0090215  0.0029972
-0.0227066  0.0099873  -0.0077391
0.0208603  0.0081805  -0.0004526
0.0257770  0.0040096  -0.0119399
-0.0020350  0.0121348  -0.0010227
0.0062852  0.0108471  -0.0097689
-0.0054707  -0.0054597  0.0207061
-0.0060937  -0.0184431  0.0175854
-0.0021557  -0.0179017  -0.0023825
-0.0064379  -0.0199364  -0.0122235
0.0080379  -0.0044271  0.0184473
0.0143435  -0.0009891  0.0171092
-0.0174169  -0.0046017  0.0043269
-0.0229604  -0.0003680  0.0024293
0.0155033  0.0126601  -0.0057479
0.0146338  0.0100047  -0.0151378
-0.0004436  0.0175194  0.0144205
-0.0072051  0.0206293  0.0097191
-0.0017653  -0.0143089  0.0106587
0.0010196  -0.0199766  0.0149158
-0.0103783  0.0062420  0.0073095
-0.0154079  0.0183964  0.0137463
0.0110300  -0.0087945  -0.0149011
0.0112946  -0.0090195  -0.0216474
-0.0187038  -0.0129414  -0.0051902
-0.0179512  -0.0204970  -0.0084866
-0.0058226  -0.0001201  0.0084979
-0.0145351  0.0003538  0.0124056
0.0061864  0.0064468  0.0167124
0.0121272  0.0123334  0.0218104
0.0024072  -0.0161262  0.0006391
0.0010721  -0.0248188  0.0057580
0.0009883  -0.0043899  -0.0075001
0.0043398  0.0026887  -0.0091841
0.0136203  0.0125974  -0.0120447
0.0097720  0.0154709  -0.0175052
-0.0050798  0.0132148  -0.0115826
-0.0078794  0.0095312  -0.0168492
-0.0133066  -0.0034210  -0.0007033
-0.0240145  0.0031791  -0.0048655
0.0090718  0.0068577  0.0143250
0.0231211  0.0004937  0.0147877
0.0018761  0.0155445  0.0145057
0.0067459  0.0252525  0.0077902
-0.0044323  0.0154400  -0.0145413
-0.0095475  0.0196911  -0.0181116
0.0116055  -0.0010534  -0.0153826
0.0144347  0.0032070  -0.0240757
-0.0064290  0.0179324  -0.0061231
-0.0002062  0.0248227  -0.0118327
0.0051855  -0.0041015  0.0200960
0.0084363  -0.0107408  0.0239906
-0.0055868  0.0130097  -0.0067817
-0.0172775  0.0099186  -0.0147642
-0.0046266  0.0147724  -0.0136537
-0.0059092  0.0134829  -0.0218847
-0.0054347  0.0130712  -0.0082220
-0.0021188  0.0065306  -0.0111680
0.0060793  -0.0198622  -0.0076567
0.0092320  -0.0174719  -0.0127740
-0.0182259  -0.0036261  -0.0090672
-0.0241457  -0.0066848  -0.0112982
0.0087439  -0.0090812  0.0037165
0.0119860  -0.0155719  0.0058742
-0.0000717  -0.0039469  -0.0102570
-0.0088371  -0.0128158  -0.0142668
-0.0031230  0.0208636  0.0109509
-0.0042174  0.0267973  0.0060589
-0.0199437  0.0089234  -0.0002907
-0.0270667  0.0078433  0.0004573
0.0074640  -0.0098608  0.0211956
0.0096077  -0.0170829  0.0195723
0.0023352  0.0133593  -0.0070417
0.0040641  0.0179795  -0.0125235
-0.0158935  0.0090798  0.0010175
-0.0143459  0.0096271  -0.0048029
0.0233991  0.0053295  -0.0103491
0.0214986  0.0051483  -0.0161050
0.0059600  -0.0200693  -0.0044567
0.0110763  -0.0246694  -0.0057771
-0.0040116  -0.0194493  -0.0023530
-0.0107620  -0.0246172  -0.0013126
-0.0136785  -0.0005289  0.0110356
-0.0214330  -0.0022571  0.0119786
0.0098866  0.0089716  0.0035863
0.0070108  0.0129932  0.0031828
-0.0023119  -0.0016181  -0.0174397
-0.0084431  0.0014480  -0.0212632
0.0075004  -0.0071879  0.0209818
0.0147225  -0.0084581  0.0230459
-0.0061245  -0.0043543  -0.0176854
-0.0121784  -0.0028502  -0.0190469
-0.0104452  0.0214291  -0.0067273
-0.0155242  0.0219904  -0.0081706
-0.0012824  -0.0034409  -0.0134058
0.0030950  -0.0120914  -0.0224948
0.0138360  0.0031825  0.0135586
0.0140445  -0.0008131  0.0111914
-0.0054890  0.0066520  0.0027899
-0.0021697  0.0052960  -0.0033735
-0.0214169  -0.0032967  0.0042602
-0.0269511  -0.0035700  0.0057153
-0.0081084  -0.0215041  -0.0035249
-0.0128569  -0.0223583  -0.0074300
-0.0010389  0.0174169  -0.0003298
-0.0045437  0.0223811  -0.0001167
-0.0198925  -0.0001066  -0.0141538
-0.0226417  0.0049139  -0.0157446
0.0122719  -0.0077290  -0.0181525
0.0152387  -0.0047963  -0.0207307
-0.0004533  -0.0016245  0.0156588
0.0065078  -0.0003365  0.0125793
-0.0025830  -0.0018377  0.0219680
-0.0070487  0.0004511  0.0202820
0.0114010  -0.0092672  0.0023514
0.0165359  -0.0085975  0.0061029
-0.0035696  -0.0201151  0.0101783
-0.0022286  -0.0264182  0.0110459
-0.0129302  0.0100175  0.0117240
-0.0151813  0.0093077  0.0175583
0.0006910  -0.0048261  0.0082242
0.0060646  -0.0087212  0.0106739
-0.0079012  -0.0106191  -0.0146684
-0.0130076  -0.0125724  -0.0191380
0.0137754  -0.0073899  0.0173949
0.0205909  -0.0056459  0.0176251
-0.0163671  0.0152197  0.0021377
-0.0158556  0.0185291  -0.0014819
-0.0111469  -0.0209737  -0.0068357
-0.0135333  -0.0186336  -0.0108863
-0.0097269  -0.0223327  -0.0020430
-0.0145517  -0.0214187  0.0027930
0.0009670  -0.0054859  0.0070565
0.0054957  -0.0005309  0.0020084
0.0009303  0.0231139  -0.0014209
-0.0012244  0.0274507  -0.0018162
-0.0189770  -0.0027273  -0.0121076
-0.0194240  -0.0060050  -0.0180679
0.0192356  0.0087934  0.0007671
0.0197728  0.0006643  -0.0008513
0.0165616  -0.0102888  0.0147182
0.0207058  -0.0109203  0.0098694
-0.0053400  -0.0007506  0.0216653
-0.0111119  0.0002053  0.0240205
-0.0001036  -0.0003714  0.0257913
-0.0007815  -0.0090618  0.0265415
-0.0117548  -0.0093336  0.0166285
-0.0114807  -0.0108873  0.0113884
-0.0121582  -0.0031551  0.0022423
-0.0118836  -0.0112141  -0.0001677
-0.0023327  -0.0198803  -0.0067421
0.0008827  -0.0232240  -0.0095173
-0.0129260  -0.0105799  0.0136965
-0.0161727  -0.0124528  0.0106487
0.0027283  0.0118655  0.0147149
0.0016036  0.0126390  0.0068289
0.0015668  -0.0068809  0.0005121
-0.0060749  -0.0104111  -0.0016445
0.0044924  -0.0087040  0.0096257
0.0081263  -0.0142243  0.0104300
0.0125120  0.0032733  -0.0214880
0.0108013  0.0083128  -0.0247689
-0.0157781  0.0174847  0.0010253
-0.0131464  0.0250157  0.0011728
-0.0001515  0.0025424  -0.0220394
0.0059841  0.0068273  -0.0210535
0.0037743  0.0225774  0.0096060
0.0016985  0.0267934  0.0066005
0.0185974  0.0050418  -0.0018372
0.0164960  0.0023626  -0.0071468
0.0009790  -0.0031655  0.0266004
0.0043441  -0.0029014  0.0280380
0.0018973  -0.0015150  -0.0235427
0.0011208  -0.0015680  -0.0273307
-0.0173065  -0.0108650  -0.0038501
-0.0176008  -0.0161165  -0.0003450
-0.0161274  0.0118759  0.0033492
-0.0217943  0.0139149  0.0076605
0.0070479  -0.0216970  0.0006314
0.0128786  -0.0247951  0.0069132
0.0013620  0.0214707  -0.0004174
0.0061074  0.0250681  0.0015773
0.0144899  0.0096248  0.0046023
0.0189916  0.0189988  0.0066317
0.0003424  0.0120146  -0.0036180
0.0040207  0.0082150  -0.0045136
-0.0195443  0.0130087  0.0040962
-0.0234733  0.0141737  0.0023216
0.0026797  0.0036239  0.0204542
0.0070770  0.0086508  0.0256350
-0.0046044  -0.0043731  0.0210847
-0.0100114  -0.0047478  0.0248144
-0.0172732  0.0084549  0.0000629
-0.0179375  0.0049179  -0.0032778
0.0031378  0.0127818  0.0112960
0.0078225  0.0169187  0.0055032
-0.0034549  -0.0189851  -0.0023619
-0.0033835  -0.0271078  0.0004483
0.0109328  0.0078200  -0.0232987
0.0093160  0.0123123  -0.0232677
0.0195067  0.0019253  0.0118200
0.0261301  0.0009973  0.0062958
0.0205563  -0.0057265  -0.0043597
0.0268952  -0.0057386  -0.0079378
-0.0135230  -0.0110744  0.0164317
-0.0190698  -0.0122849  0.0144413
-0.0064366  0.0017784  -0.0205698
-0.0082841  0.0061321  -0.0231564
0.0159482  0.0161026  0.0047944
0.0145534  0.0220465  0.0029693
-0.0232791  0.0084249  0.0015255
-0.0257502  0.0080689  0.0055544
-0.0002406  0.0181853  -0.0001646
0.0063917  0.0179017  -0.0033236
0.0100767  -0.0024137  -0.0124122
0.0108346  0.0047021  -0.0108390
0.0156666  0.0123434  -0.0012279
0.0168498  0.0178817  -0.0022133
0.0175613  -0.0130655  0.0137870
0.0194998  -0.0158673  0.0111325
0.0120148  0.0103082  0.0129741
0.0215063  0.0128671  0.0134113
-0.0132431  -0.0034750  0.0041314
-0.0150732  -0.0067324  0.0104390
-0.0063841  -0.0081574  -0.0134734
-0.0121644  -0.0059034  -0.0146404
0.0062812  -0.0134039  0.0106434
0.0067280  -0.0191803  0.0123411
-0.0103018  0.0132103  -0.0105541
-0.0124056  0.0163759  -0.0134125
0.0058088  -0.0102191  0.0098947
0.0104452  -0.0104617  0.0095842
0.0093770  0.0088946  0.0007013
0.0092635  0.0114433  -0.0014218
-0.0046824  0.0076233  0.0258143
-0.0041368  0.0109382  0.0258059
0.0027438  -0.0223426  0.0054715
0.0055166  -0.0259098  0.0105850
[...]
CELL_DATA  1023
scalars raio float
LOOKUP_TABLE default
1.2665547
0.2951275
0.1217509
0.2880524
0.1209123
0.2807684
0.2684252
0.1245868
0.2591629
0.1827991
0.1564699
0.1315687
0.2243915
0.1976247
0.1635792
0.1494983
0.1529794
0.1408219
1.2611905
1.2597163
0.7323027
0.2134318
0.1671432
0.1240671
0.1402671
0.1716001
0.1454295
0.1255123
0.7262088
0.7235499
0.4449555
0.2039301
0.1464594
0.1747816
0.0979450
0.1638609
0.4301924
0.1943691
0.1647342
0.1421552
0.4165373
0.3011643
0.1403679
0.2906363
0.2774847
0.2404774
0.2130826
0.1670303
0.1711667
0.1617491
0.1953864
0.1656863
0.1427784
0.1471184
0.3555708
0.3490834
0.3387171
0.1916300
0.1530883
0.1510923
0.3168961
0.2027479
0.1670928
0.1542359
0.2863897
0.2712401
0.2198239
0.1850183
0.1624740
0.2105428
0.1735942
0.1600747
0.1523189
0.1543649
0.1341833
0.6624438
0.6551303
0.1189736
0.6538197
0.3163801
0.1360696
0.3077576
0.1953876
0.1623064
0.1471073
0.2788816
0.2656409
0.2151848
0.1740559
0.1673990
0.2063070
0.1599306
0.1673913
0.1433386
0.6281296
0.6124797
0.1781037
0.1362710
0.1461087
0.6074178
0.2403836
0.1422502
0.2224785
0.1481196
0.1979991
0.1633945
0.1503697
0.5946000
0.5925566
0.5645591
0.4849907
0.1858993
0.1583337
0.1349026
0.4757100
0.2080355
0.1911296
0.1264412
0.4620601
0.4391497
0.4214561
0.3945089
0.1659093
0.3844750
0.1774191
0.3714450
0.2938294
0.1877817
0.2656477
0.1801758
0.2345127
0.1489692
0.2124684
0.2957962
0.2391201
0.2295703
0.1774771
0.1867092
0.1163134
0.2302599
0.1790922
0.1862812
0.2378805
0.2153306
0.1480164
0.1889081
0.1514914
0.2142145
0.1512472
0.1853725
0.2407760
0.1857117
0.1401757
0.1539771
0.1962082
0.1530870
0.1582872
0.4038434
0.3974435
0.3538952
0.1664814
0.3411617
0.3286970
0.1417836
0.3196571
0.3080155
0.1724316
0.2888327
0.2155419
0.1877262
0.1503403
0.2414837
0.1748554
0.2059533
0.1509602
0.1612823
0.2642795
0.2129001
0.1622508
0.1752100
0.2065204
0.1459982
0.1785920
0.1455262
0.3040929
0.2759458
0.1965506
0.1615638
0.1500133
0.2376331
0.1619702
0.2093086
0.1293089
0.1913631
0.1922723
0.1518236
0.1533817
0.1292634
0.2623951
0.1899789
0.1666144
0.1306757
0.2238011
0.2067901
0.1620377
0.1661691
0.1332648
0.2119572
0.1410043
0.1886973
0.1440414
0.1550894
0.1612315
0.0955688
0.1491574
1.1711439
1.1506417
1.1305084
0.1500453
0.1150036
0.1229157
1.1296266
0.1366074
1.1289603
0.9340475
0.1533608
0.1356717
0.1035303
0.9326674
0.3911042
0.1174039
0.3875455
0.3833201
0.1603452
0.1310482
0.1232448
0.3737298
0.1252281
0.3689830
0.3414936
0.1294629
0.3351752
0.1561997
0.3234630
0.3120409
0.2833499
0.2157920
0.1820917
0.1588844
0.2333153
0.1184070
0.2226717
0.1743282
0.1790773
0.1969016
0.1709627
0.1381558
0.1512503
0.2183638
0.1863342
0.1379138
0.1566824
0.1579770
0.1234893
0.9091550
0.9018001
0.1436701
0.9005830
0.8505737
0.5831324
0.1976878
0.1264711
0.1786612
0.1458982
0.1374577
0.5754586
0.5727468
0.4647267
0.1932656
0.1332964
0.1692746
0.1500808
0.1137010
0.4533067
0.3272975
0.1505570
0.3163137
0.2624058
0.1561159
0.2425171
0.2290784
0.2035924
0.1530125
0.1308856
0.2385805
0.2133560
0.1236509
0.1985018
0.1569748
0.3872818
0.3665646
0.0985864
0.3641720
0.3543091
0.2933369
0.2818283
0.1718605
0.2586756
0.1784905
0.2265149
0.1853090
0.1738990
0.1418757
0.2679476
0.2184959
0.1537470
0.1894240
0.2065065
0.1539772
0.1727557
0.1563059
0.2067074
0.1674282
0.1605554
0.4439787
0.4084156
0.1272061
0.4042601
0.1306319
0.3996612
0.2534913
0.1889751
0.1635131
0.1334544
0.2120895
0.1855240
0.1466613
0.3622816
0.3547448
0.3441699
0.2614957
0.1446796
0.2458108
0.1679843
0.2162471
0.1764595
0.1665237
0.2839196
0.2615738
0.1989348
0.1692264
0.1446504
0.2156174
0.1720189
0.1702432
0.1708806
0.1570625
0.1427070
0.2686569
0.2086893
0.1471665
0.1807106
0.2175912
0.1353259
0.1985209
0.1532837
0.1616276
0.1389265
0.7471471
0.7417550
0.6456339
0.1478767
0.6430376
0.1939856
0.1662958
0.1392643
0.6370984
0.6350579
0.5971152
0.2517368
0.2020522
0.1611909
0.1595385
0.1975033
0.1008617
0.1883142
0.1542084
0.1443999
0.5818121
0.2910275
0.1471905
0.2778935
0.2674622
0.1372531
0.2548266
0.2241822
0.1665791
0.1879987
0.1741394
0.1325167
0.5564500
0.5246284
0.1883664
0.1715584
0.1177892
0.5164057
0.3607122
0.2119785
0.1561984
0.1787809
0.1227932
0.1569041
0.3344432
0.3139384
0.2259663
0.1909572
0.1660063
0.2687132
0.2415506
0.1753946
0.2056549
0.1494172
0.1750302
0.1744525
0.1863122
0.1237143
0.1659945
0.4494297
0.4290124
0.2722130
0.2124311
0.1809698
0.1541031
0.2195624
0.1878999
0.1580830
0.3888360
0.3809138
0.2216156
0.1792958
0.1723603
0.3540602
0.3009935
0.2222154
0.1946980
0.1531547
0.2535297
0.2073080
0.1838839
0.1391045
0.1947537
0.2577085
0.2310370
0.1937021
0.1717298
0.1684878
0.1521277
0.2277830
0.2080743
0.1784107
0.1493255
0.1411133
0.3033016
0.2095384
0.1776127
0.1532199
0.2654341
0.2508685
0.1506793
0.2312556
0.1863060
0.1807039
0.1428140
0.3509321
0.3423650
0.3295651
0.1721502
0.3130988
0.1361511
0.3042703
0.2639340
0.1614631
0.2420231
0.1867677
0.1971400
0.2138776
0.1480620
0.1869854
0.1630507
0.1456304
0.1352986
0.5179927
0.5137442
0.5059883
0.1673831
0.1426455
0.1213522
0.4998074
0.4044040
0.1530792
0.3969563
0.3718178
0.2222457
0.1657646
0.1858814
0.3432045
0.2818600
0.2743581
0.1648469
0.2528837
0.2302233
0.1885820
0.1764735
0.1583355
0.1202953
0.2622363
0.1660112
0.2378643
0.1484644
0.2167697
0.1554149
0.1859721
0.2233835
0.1556540
0.1946557
0.3886792
0.3718315
0.1475517
0.3639194
0.3067611
0.1413047
0.2964223
0.2793559
0.1676126
0.2575910
0.1727016
0.2285669
0.1619125
0.2683741
0.1988160
0.1641403
0.1509055
0.2255266
0.1614122
0.1936805
0.1940714
0.1261311
0.1743822
0.1822039
0.1108974
0.1673286
0.1502498
0.2077380
0.1883066
0.1300831
0.1648025
0.1317653
0.4863623
0.4840634
0.1346297
0.4805669
0.4564122
0.1278964
0.4530397
0.2703768
0.1550996
0.2521650
0.2457904
0.2265382
0.1760107
0.1834427
0.1477145
0.1058376
0.4183506
0.4126617
0.3540329
0.3119371
0.1549357
0.2986372
0.2132653
0.1792907
0.1578946
0.2567948
0.2331522
0.1837910
0.1862980
0.1621053
0.2411363
0.1268127
0.2288280
0.1599382
0.1990850
0.2958609
0.2857099
0.2412025
0.1623550
0.2136570
0.1687001
0.1704502
0.2102167
0.1751772
0.1575946
0.1370693
0.1433630
0.2515011
0.2355463
0.1788817
0.1544847
0.1267668
0.1943821
0.1623487
0.1452681
0.1416067
0.1175354
0.2625134
0.1555513
0.1391239
0.1023110
0.2428758
0.1981677
0.1335894
0.1754202
0.1870532
0.1211231
0.1683087
0.8545376
0.8522624
0.8504259
0.1282278
0.8494530
0.7947363
0.3293434
0.3251960
0.1463614
0.3149970
0.1449492
0.3044146
0.2904177
0.2111646
0.1783252
0.1552955
0.2470512
0.2257910
0.1375124
0.2073194
0.1729426
0.1551998
0.1527981
0.1548772
0.1100450
0.7754176
0.6192273
0.1183017
0.6177847
0.1397201
0.6153932
0.3910016
0.1481027
0.3837864
0.3773943
0.3391296
0.1393654
0.3310954
0.2340876
0.1579981
0.2071040
0.1860941
0.1345987
0.2863057
0.2578748
0.2380436
0.2235279
0.1881565
0.1651846
0.1323855
0.1541064
0.1848890
0.1423394
0.1509037
0.2452325
0.2266852
0.1467080
0.2040095
0.1708607
0.1518705
0.1458031
0.1405711
0.5575034
0.5341241
0.1463439
0.5304367
0.5138572
0.1368368
0.5106022
0.4608867
0.2847730
0.2762956
0.1537008
0.2594327
0.2016197
0.1627136
0.1572443
0.2100321
0.1339418
0.1900303
0.1260264
0.4213527
0.2384063
0.1649629
0.2084799
0.1346404
0.1877724
0.3941990
0.3772585
0.1380390
0.3709947
0.3165667
0.1489850
0.3051611
0.2277494
0.1981928
0.1591126
0.2551175
0.2275782
0.1742693
0.1865697
0.1688927
0.2684135
0.2455126
0.2197718
0.1981372
0.1415534
0.1611343
0.1655773
0.1962879
0.1274304
0.1764477
0.3277951
0.3186060
0.1409187
0.3091383
0.2533580
0.2072528
0.1600322
0.1687312
0.1945251
0.2368105
0.2162613
0.1611595
0.1809886
0.1468349
0.1422728
0.2384722
0.1657630
0.2080618
0.1381181
0.1853935
0.2754457
0.2175052
0.2050826
0.1824189
0.1367133
0.1185073
0.2197263
0.1070730
0.2109013
0.1702013
0.1644861
0.6116244
0.6096373
0.6031069
0.1747166
0.1255294
0.1497081
0.5981792
0.4977889
0.4251282
0.2513597
0.1617332
0.2267001
0.1907955
0.1675694
0.3935502
0.3751322
0.2081256
0.1674585
0.1628562
0.3524318
0.3084316
0.2855442
0.2297131
0.2029216
0.1555794
0.2234742
0.1741979
0.1804356
0.1823070
0.2434783
0.1483229
0.2235429
0.1725405
0.1820565
0.2013542
0.1651354
0.1541145
0.3596342
0.3523913
0.2871361
0.2021150
0.1707734
0.1485209
0.2488860
0.1789952
0.2131363
0.1631418
0.1747901
0.2718315
0.2246594
0.1753941
0.1811380
0.2060429
0.1372925
0.1833075
0.1401718
0.4492837
0.4022347
0.2542207
0.1532585
0.2341044
0.1522108
0.2103217
0.1226063
0.1953997
0.3650543
0.3529440
0.1854537
0.1691859
0.1153691
0.3349773
0.3193221
0.2844752
0.2630818
0.2007493
0.2162889
0.1771963
0.1657600
0.1688392
0.2120784
0.1660860
0.1705093
0.1713111
0.1673020
0.2947680
0.2649067
0.1503913
0.2476499
0.1694438
0.2177424
0.1871502
0.1556177
0.1914922
0.1506358
0.1533156
0.1931286
0.1382328
0.1658517
0.1305065
0.4805608
0.4364204
0.1378710
0.4317848
0.3621289
0.2325333
0.1598130
0.2040172
0.1441189
0.1765006
0.3268421
0.2907532
0.2520447
0.1820570
0.2152802
0.1903866
0.1454380
0.2046255
0.1597520
0.1649864
0.2178273
0.1618645
0.1826637
0.3207940
0.3086556
0.1498173
0.2964106
0.2488791
0.1611497
0.2239429
0.1934059
0.1586916
0.2198528
0.1705950
0.1782324
0.1533673
0.3031455
0.2894639
0.2098448
0.1637912
0.1692279
0.2466952
0.2353382
0.1400603
0.2174812
0.1715715
0.1736459
0.1255606
0.1533219
0.1586519
0.1127895
0.1367711
0.1706671
0.1374347
0.1334230
0.4283171
0.4248559
0.3809862
0.1806079
0.1552540
0.1290477
0.3669459
0.3610320
0.3359615
0.1437329
0.3269527
0.1555453
0.3147695
0.2810194
0.2415387
0.1679702
0.2106892
0.1329423
0.1913196
0.2008386
0.1340298
0.1785620
0.2079672
0.1623080
0.1677302
0.2090689
0.1419685
0.1844663
0.1092515
0.1706889
0.1329624
0.2775781
0.2355196
0.1910382
0.1326669
0.1667556
0.1826371
0.1544421
0.1340405
0.2026573
0.1721166
0.1038204
0.1584719
0.1477338
0.1236286
0.4360193
0.4096430
0.1360087
0.4045831
0.3622172
0.1261853
0.3570388
0.1384698
0.3499568
0.2168601
0.1319895
0.1991560
0.1536306
0.1622735
0.3196499
0.3141779
0.3068117
0.2533169
0.2365756
0.1680853
0.2040172
0.1601288
0.1636891
0.1444577
0.2328567
0.1421266
0.2136699
0.1522738
0.1839482
0.1286765
0.1181371
0.2654369
0.2549715
0.2281928
0.1598398
0.1983086
0.1629219
0.1514556
0.1674280
0.1369267
0.1285870
0.1285845
0.2418820
0.1095707
0.2341423
0.1095747
0.2258530
0.2002407
0.1640764
0.1534293
0.1517101
0.1915326
0.1741108
0.1483681
0.1262447
0.1204663
