# vtk DataFile Version 3.0
vtk output
ASCII
DATASET POLYDATA
POINTS  768  float
0.0000000  0.0000000  0.0287941
-0.0003651  0.0180983  -0.0191554
-0.0065034  0.0001095  0.0078678
-0.0229133  -0.0151218  -0.0048432
-0.0005314  -0.0019044  0.0133952
0.0161787  -0.0139395  -0.0169247
-0.0001594  -0.0005713  0.0241744
0.0108221  0.0161363  0.0120311
0.0014696  -0.0066030  -0.0037803
-0.0077080  -0.0083694  -0.0219572
-0.0047118  -0.0004947  0.0095260
-0.0192646  0.0200716  0.0042305
0.0103083  0.0070338  0.0133019
0.0246752  0.0074955  -0.0007781
-0.0002710  -0.0009713  0.0209406
0.0172991  -0.0153499  0.0150216
0.0016497  -0.0071177  0.0041685
0.0089020  -0.0247103  0.0002435
-0.0002018  -0.0007233  0.0229456
-0.0199784  -0.0052792  0.0172966
0.0083012  -0.0060907  -0.0099539
0.0132603  0.0015152  -0.0145622
-0.0141005  -0.0036047  -0.0027394
-0.0195703  -0.0001002  -0.0191199
0.0154446  0.0102234  0.0036130
0.0163376  0.0180294  -0.0092327
-0.0058041  0.0129218  -0.0047241
-0.0110212  0.0253089  -0.0062196
0.0004719  -0.0043025  0.0091509
-0.0069985  -0.0218576  0.0088186
-0.0018013  -0.0032241  -0.0147553
-0.0023454  0.0069786  -0.0273965
-0.0050543  0.0094560  0.0006137
0.0012999  0.0201970  0.0019233
-0.0006034  -0.0005044  -0.0198218
0.0078046  -0.0034745  -0.0265650
-0.0114543  -0.0029922  0.0040477
-0.0228747  -0.0127599  0.0070993
0.0044199  0.0061952  0.0181740
0.0003987  0.0244020  0.0147086
0.0012021  -0.0060479  0.0060618
0.0233401  -0.0065459  0.0022289
0.0016496  -0.0149894  0.0012674
-0.0045669  -0.0201516  -0.0028283
0.0130296  -0.0093812  0.0015147
0.0181424  -0.0173834  -0.0057974
0.0041750  -0.0187787  -0.0008268
0.0057013  -0.0233082  -0.0117166
0.0122624  0.0082280  0.0069106
0.0084902  0.0057670  -0.0025916
-0.0105368  -0.0059688  0.0194826
-0.0145107  -0.0142506  0.0170338
-0.0000478  -0.0001714  0.0274082
-0.0101073  0.0106170  0.0242324
0.0167557  -0.0077487  0.0004770
0.0197603  -0.0031882  -0.0072749
0.0002486  0.0186562  -0.0000633
0.0048073  0.0269696  -0.0036749
-0.0144072  0.0090215  0.0029972
-0.0227066  0.0099873  -0.0077391
0.0208603  0.0081805  -0.0004526
0.0257770  0.0040096  -0.0119399
-0.0020350  0.0121348  -0.0010227
0.0062852  0.0108471  -0.0097689
-0.0054707  -0.0054597  0.0207061
-0.0060937  -0.0184431  0.0175854
-0.0021557  -0.0179017  -0.0023825
-0.0064379  -0.0199364  -0.0122235
0.0080379  -0.0044271  0.0184473
0.0143435  -0.0009891  0.0171092
-0.0174169  -0.0046017  0.0043269
-0.0229604  -0.0003680  0.0024293
0.0155033  0.0126601  -0.0057479
0.0146338  0.0100047  -0.0151378
-0.0004436  0.0175194  0.0144205
-0.0072051  0.0206293  0.0097191
-0.0017653  -0.0143089  0.0106587
0.0010196  -0.0199766  0.0149158
-0.0103783  0.0062420  0.0073095
-0.0154079  0.0183964  0.0137463
0.0110300  -0.0087945  -0.0149011
0.0112946  -0.0090195  -0.0216474
-0.0187038  -0.0129414  -0.0051902
-0.0179512  -0.0204970  -0.0084866
-0.0058226  -0.0001201  0.0084979
-0.0145351  0.0003538  0.0124056
0.0061864  0.0064468  0.0167124
0.0121272  0.0123334  0.0218104
0.0024072  -0.0161262  0.0006391
0.0010721  -0.0248188  0.0057580
0.0009883  -0.0043899  -0.0075001
0.0043398  0.0026887  -0.0091841
0.0136203  0.0125974  -0.0120447
0.0097720  0.0154709  -0.0175052
-0.0050798  0.0132148  -0.0115826
-0.0078794  0.0095312  -0.0168492
-0.0133066  -0.0034210  -0.0007033
-0.0240145  0.0031791  -0.0048655
0.0090718  0.0068577  0.0143250
0.0231211  0.0004937  0.0147877
0.0018761  0.0155445  0.0145057
0.0067459  0.0252525  0.0077902
-0.0044323  0.0154400  -0.0145413
-0.0095475  0.0196911  -0.0181116
0.0116055  -0.0010534  -0.0153826
0.0144347  0.0032070  -0.0240757
-0.0064290  0.0179324  -0.0061231
-0.0002062  0.0248227  -0.0118327
0.0051855  -0.0041015  0.0200960
0.0084363  -0.0107408  0.0239906
-0.0055868  0.0130097  -0.0067817
-0.0172775  0.0099186  -0.0147642
-0.0046266  0.0147724  -0.0136537
-0.0059092  0.0134829  -0.0218847
-0.0054347  0.0130712  -0.0082220
-0.0021188  0.0065306  -0.0111680
0.0060793  -0.0198622  -0.0076567
0.0092320  -0.0174719  -0.0127740
-0.0182259  -0.0036261  -0.0090672
-0.0241457  -0.0066848  -0.0112982
0.0087439  -0.0090812  0.0037165
0.0119860  -0.0155719  0.0058742
-0.0000717  -0.0039469  -0.0102570
-0.0088371  -0.0128158  -0.0142668
-0.0031230  0.0208636  0.0109509
-0.0042174  0.0267973  0.0060589
-0.0199437  0.0089234  -0.0002907
-0.0270667  0.0078433  0.0004573
0.0074640  -0.0098608  0.0211956
0.0096077  -0.0170829  0.0195723
0.0023352  0.0133593  -0.0070417
0.0040641  0.0179795  -0.0125235
-0.0158935  0.0090798  0.0010175
-0.0143459  0.0096271  -0.0048029
0.0233991  0.0053295  -0.0103491
0.0214986  0.0051483  -0.0161050
0.0059600  -0.0200693  -0.0044567
0.0110763  -0.0246694  -0.0057771
-0.0040116  -0.0194493  -0.0023530
-0.0107620  -0.0246172  -0.0013126
-0.0136785  -0.0005289  0.0110356
-0.0214330  -0.0022571  0.0119786
0.0098866  0.0089716  0.0035863
0.0070108  0.0129932  0.0031828
-0.0023119  -0.0016181  -0.0174397
-0.0084431  0.0014480  -0.0212632
0.0075004  -0.0071879  0.0209818
0.0147225  -0.0084581  0.0230459
-0.0061245  -0.0043543  -0.0176854
-0.0121784  -0.0028502  -0.0190469
-0.0104452  0.0214291  -0.0067273
-0.0155242  0.0219904  -0.0081706
-0.0012824  -0.0034409  -0.0134058
0.0030950  -0.0120914  -0.0224948
0.0138360  0.0031825  0.0135586
0.0140445  -0.0008131  0.0111914
-0.0054890  0.0066520  0.0027899
-0.0021697  0.0052960  -0.0033735
-0.0214169  -0.0032967  0.0042602
-0.0269511  -0.0035700  0.0057153
-0.0081084  -0.0215041  -0.0035249
-0.0128569  -0.0223583  -0.0074300
-0.0010389  0.0174169  -0.0003298
-0.0045437  0.0223811  -0.0001167
-0.0198925  -0.0001066  -0.0141538
-0.0226417  0.0049139  -0.0157446
0.0122719  -0.0077290  -0.0181525
0.0152387  -0.0047963  -0.0207307
-0.0004533  -0.0016245  0.0156588
0.0065078  -0.0003365  0.0125793
-0.0025830  -0.0018377  0.0219680
-0.0070487  0.0004511  0.0202820
0.0114010  -0.0092672  0.0023514
0.0165359  -0.0085975  0.0061029
-0.0035696  -0.0201151  0.0101783
-0.0022286  -0.0264182  0.0110459
-0.0129302  0.0100175  0.0117240
-0.0151813  0.0093077  0.0175583
0.0006910  -0.0048261  0.0082242
0.0060646  -0.0087212  0.0106739
-0.0079012  -0.0106191  -0.0146684
-0.0130076  -0.0125724  -0.0191380
0.0137754  -0.0073899  0.0173949
0.0205909  -0.0056459  0.0176251
-0.0163671  0.0152197  0.0021377
-0.0158556  0.0185291  -0.0014819
-0.0111469  -0.0209737  -0.0068357
-0.0135333  -0.0186336  -0.0108863
-0.0097269  -0.0223327  -0.0020430
-0.0145517  -0.0214187  0.0027930
0.0009670  -0.0054859  0.0070565
0.0054957  -0.0005309  0.0020084
0.0009303  0.0231139  -0.0014209
-0.0012244  0.0274507  -0.0018162
-0.0189770  -0.0027273  -0.0121076
-0.0194240  -0.0060050  -0.0180679
0.0192356  0.0087934  0.0007671
0.0197728  0.0006643  -0.0008513
0.0165616  -0.0102888  0.0147182
0.0207058  -0.0109203  0.0098694
-0.0053400  -0.0007506  0.0216653
-0.0111119  0.0002053  0.0240205
-0.0001036  -0.0003714  0.0257913
-0.0007815  -0.0090618  0.0265415
-0.0117548  -0.0093336  0.0166285
-0.0114807  -0.0108873  0.0113884
-0.0121582  -0.0031551  0.0022423
-0.0118836  -0.0112141  -0.0001677
-0.0023327  -0.0198803  -0.0067421
0.0008827  -0.0232240  -0.0095173
-0.0129260  -0.0105799  0.0136965
-0.0161727  -0.0124528  0.0106487
0.0027283  0.0118655  0.0147149
0.0016036  0.0126390  0.0068289
0.0015668  -0.0068809  0.0005121
-0.0060749  -0.0104111  -0.0016445
0.0044924  -0.0087040  0.0096257
0.0081263  -0.0142243  0.0104300
0.0125120  0.0032733  -0.0214880
0.0108013  0.0083128  -0.0247689
-0.0157781  0.0174847  0.0010253
-0.0131464  0.0250157  0.0011728
-0.0001515  0.0025424  -0.0220394
0.0059841  0.0068273  -0.0210535
0.0037743  0.0225774  0.0096060
0.0016985  0.0267934  0.0066005
0.0185974  0.0050418  -0.0018372
0.0164960  0.0023626  -0.0071468
0.0009790  -0.0031655  0.0266004
0.0043441  -0.0029014  0.0280380
0.0018973  -0.0015150  -0.0235427
0.0011208  -0.0015680  -0.0273307
-0.0173065  -0.0108650  -0.0038501
-0.0176008  -0.0161165  -0.0003450
-0.0161274  0.0118759  0.0033492
-0.0217943  0.0139149  0.0076605
0.0070479  -0.0216970  0.0006314
0.0128786  -0.0247951  0.0069132
0.0013620  0.0214707  -0.0004174
0.0061074  0.0250681  0.0015773
0.0144899  0.0096248  0.0046023
0.0189916  0.0189988  0.0066317
0.0003424  0.0120146  -0.0036180
0.0040207  0.0082150  -0.0045136
-0.0195443  0.0130087  0.0040962
-0.0234733  0.0141737  0.0023216
0.0026797  0.0036239  0.0204542
0.0070770  0.0086508  0.0256350
-0.0046044  -0.0043731  0.0210847
-0.0100114  -0.0047478  0.0248144
-0.0172732  0.0084549  0.0000629
-0.0179375  0.0049179  -0.0032778
0.0031378  0.0127818  0.0112960
0.0078225  0.0169187  0.0055032
-0.0034549  -0.0189851  -0.0023619
-0.0033835  -0.0271078  0.0004483
0.0109328  0.0078200  -0.0232987
0.0093160  0.0123123  -0.0232677
0.0195067  0.0019253  0.0118200
0.0261301  0.0009973  0.0062958
0.0205563  -0.0057265  -0.0043597
0.0268952  -0.0057386  -0.0079378
-0.0135230  -0.0110744  0.0164317
-0.0190698  -0.0122849  0.0144413
-0.0064366  0.0017784  -0.0205698
-0.0082841  0.0061321  -0.0231564
0.0159482  0.0161026  0.0047944
0.0145534  0.0220465  0.0029693
-0.0232791  0.0084249  0.0015255
-0.0257502  0.0080689  0.0055544
-0.0002406  0.0181853  -0.0001646
0.0063917  0.0179017  -0.0033236
0.0100767  -0.0024137  -0.0124122
0.0108346  0.0047021  -0.0108390
0.0156666  0.0123434  -0.0012279
0.0168498  0.0178817  -0.0022133
0.0175613  -0.0130655  0.0137870
0.0194998  -0.0158673  0.0111325
0.0120148  0.0103082  0.0129741
0.0215063  0.0128671  0.0134113
-0.0132431  -0.0034750  0.0041314
-0.0150732  -0.0067324  0.0104390
-0.0063841  -0.0081574  -0.0134734
-0.0121644  -0.0059034  -0.0146404
0.0062812  -0.0134039  0.0106434
0.0067280  -0.0191803  0.0123411
-0.0103018  0.0132103  -0.0105541
-0.0124056  0.0163759  -0.0134125
0.0058088  -0.0102191  0.0098947
0.0104452  -0.0104617  0.0095842
0.0093770  0.0088946  0.0007013
0.0092635  0.0114433  -0.0014218
-0.0046824  0.0076233  0.0258143
-0.0041368  0.0109382  0.0258059
0.0027438  -0.0223426  0.0054715
0.0055166  -0.0259098  0.0105850
[...]
CELL_DATA  767
scalars raio float
LOOKUP_TABLE default
1.1705616
0.2477167
0.1218876
0.2374613
0.1275608
0.2244963
0.1895795
0.1622738
0.1364489
0.1651054
1.1668520
1.1657304
0.6703580
0.1983107
0.1391796
0.1721632
0.1459067
0.1259242
0.6645224
0.6630108
0.3953549
0.1768882
0.1493621
0.1301105
0.3831807
0.1952359
0.1654689
0.1427891
0.3654810
0.2591387
0.1418279
0.2441244
0.2152117
0.1757633
0.1655592
0.1660841
0.3155427
0.3023456
0.1564186
0.2876916
0.2053260
0.1692175
0.1561971
0.2474674
0.2248008
0.1768150
0.1800055
0.1559741
0.1557670
0.6123837
0.6064659
0.3045250
0.1368437
0.2950204
0.1975212
0.1640787
0.1487136
0.2619357
0.2461633
0.2185690
0.1767932
0.1700316
0.1647905
0.1450993
0.5797090
0.5610147
0.1788242
0.1368222
0.1466998
0.5548918
0.2239466
0.1490971
0.1993056
0.1644727
0.1513620
0.5424563
0.5399559
0.5193315
0.4421506
0.1499481
0.4363256
0.2101338
0.1930573
0.1277165
0.4194342
0.4060559
0.3952387
0.3627055
0.1686062
0.3501297
0.1808798
0.3332364
0.2724056
0.1939744
0.2346218
0.1923317
0.1796773
0.2560698
0.1433427
0.2401252
0.1867653
0.1942623
0.2411624
0.2183014
0.1500585
0.1915144
0.1535814
0.1733520
0.1898052
0.1432654
0.1573711
0.3771045
0.3695164
0.3300207
0.1684162
0.3147005
0.2993039
0.1437183
0.2878236
0.2722842
0.1722339
0.2470456
0.1788827
0.2106968
0.1540694
0.1632951
0.2439110
0.2167252
0.1651659
0.1783580
0.1630077
0.1469386
0.2589259
0.2383876
0.1573219
0.2129258
0.1698568
0.1681331
0.1562109
0.1300015
0.2632630
0.1906072
0.1671655
0.1311079
0.2245414
0.2074741
0.1625737
0.1667188
0.1337056
0.1875170
0.1442767
0.1531250
0.1259493
1.0865857
1.0689272
1.0482485
0.1501533
0.1150863
0.1230041
1.0472206
0.1367252
1.0464431
0.8656732
0.1161196
0.8649762
0.3729619
0.1175935
0.3690237
0.1606545
0.1313010
0.1234825
0.3585814
0.1255424
0.3533767
0.3335645
0.1298450
0.3268727
0.1566455
0.3144122
0.3021992
0.2837306
0.2160819
0.1823364
0.1590979
0.2336288
0.1185661
0.2229709
0.1745625
0.1793179
0.1681810
0.1515845
0.1914190
0.1416773
0.1609581
0.8412161
0.8340151
0.1439221
0.8325840
0.7841854
0.5532552
0.1982619
0.1268384
0.1791801
0.1463218
0.1378568
0.5446347
0.5415753
0.4424400
0.1711897
0.1517788
0.1149874
0.4337267
0.3290835
0.1513786
0.3180398
0.2638377
0.1569678
0.2438405
0.2303285
0.2047033
0.1538475
0.1315998
0.2398824
0.2145202
0.1243256
0.1995850
0.1578314
0.3581846
0.3330181
0.0993872
0.3300408
0.3175480
0.2764437
0.2625988
0.1811977
0.2299505
0.1881195
0.1765365
0.1445099
0.2216837
0.1559901
0.1921876
0.1578063
0.2081753
0.1686171
0.1616956
0.4164729
0.3908208
0.1311032
0.3858399
0.2544764
0.1897095
0.1641485
0.1339731
0.2129137
0.1862450
0.1472312
0.3447137
0.3333136
0.2396551
0.1461439
0.2199665
0.1703012
0.1786731
0.2854787
0.2630102
0.2000272
0.1701556
0.1454447
0.2168015
0.1729635
0.1711781
0.1718190
0.1578227
0.2323438
0.2118098
0.1493671
0.1834127
0.1448672
0.1393715
0.6788835
0.6722793
0.5872763
0.1485483
0.5840909
0.1949376
0.1671119
0.1399478
0.5767616
0.5742290
0.5400932
0.2380226
0.2040902
0.1628168
0.1611477
0.1708170
0.1036041
0.1570299
0.5242216
0.2468730
0.1481625
0.2276220
0.1866921
0.1742036
0.5052963
0.4835644
0.1421320
0.4794363
0.3143284
0.1875693
0.1607483
0.1347250
0.2902704
0.2587429
0.1833389
0.2234691
0.1873962
0.1660550
0.1925150
0.1278330
0.1715208
0.4293489
0.4145689
0.2751534
0.2147258
0.1829246
0.1557677
0.2219341
0.1899296
0.1597906
0.3694297
0.3602929
0.2246362
0.1817395
0.1747095
0.3284547
0.2863323
0.2263997
0.1983641
0.1560386
0.2281180
0.1566292
0.2002350
0.2286833
0.1860114
0.1767652
0.1539565
0.1991258
0.1681861
0.1464056
0.2516708
0.1682495
0.2235885
0.1565191
0.1943692
0.3168177
0.3012060
0.1744661
0.2802739
0.1382574
0.2685781
0.1643042
0.2462817
0.1900540
0.2006089
0.1647672
0.1360165
0.4661543
0.4565474
0.1289757
0.4530902
0.3584771
0.3254099
0.1877494
0.3030795
0.2405601
0.2286605
0.1923344
0.1691622
0.1252603
0.2405486
0.1707764
0.2075327
0.1561720
0.1724603
0.2264238
0.1577725
0.1973050
0.3607516
0.3527726
0.3096203
0.1426218
0.2991852
0.2819597
0.1691748
0.2599919
0.1743113
0.2306973
0.1634216
0.2422723
0.2033174
0.1678565
0.1543221
0.1798316
0.1449711
0.1830603
0.1114186
0.1681150
0.2083373
0.1888498
0.1304584
0.1652780
0.1321454
0.4561489
0.4394925
0.1281141
0.4358333
0.2513291
0.1568042
0.2290707
0.2208333
0.1926919
0.1534712
0.1077404
0.4059755
0.3998936
0.3546349
0.3124674
0.1551991
0.2991449
0.2136279
0.1795955
0.1581631
0.2572314
0.2335486
0.1841035
0.1866148
0.1623809
0.2415463
0.1270284
0.2292171
0.1602101
0.1994235
0.2684593
0.2413113
0.1624283
0.2137534
0.1687762
0.1705271
0.1743088
0.1436194
0.2156020
0.1919073
0.1342209
0.1669062
0.1434914
0.2474779
0.1571464
0.1405506
0.1033601
0.2242436
0.2010287
0.1355180
0.1779528
0.1466216
0.7922021
0.7895436
0.7886291
0.1284178
0.7874924
0.7310389
0.2815015
0.2753972
0.1488346
0.2600699
0.1676889
0.2343765
0.2067347
0.1443840
0.1799356
0.1592565
0.1123968
0.7168518
0.5663586
0.1402164
0.5634792
0.3679856
0.1489147
0.3596702
0.3522206
0.3164586
0.1408003
0.3068808
0.1647355
0.2901632
0.2613492
0.2412508
0.2265395
0.1906916
0.1674102
0.1341691
0.1561827
0.1873801
0.1442572
0.1529368
0.2289694
0.2064399
0.1728962
0.1536798
0.1474570
0.1414749
0.5053811
0.4918922
0.4843227
0.1377881
0.4805763
0.4289732
0.2693473
0.2594064
0.1564668
0.2388445
0.2081381
0.1679741
0.1623280
0.1664121
0.1277463
0.3901734
0.2414690
0.1670821
0.2111581
0.1363701
0.1901847
0.3565272
0.3462579
0.1402626
0.3384094
0.3220692
0.1515746
0.3104654
0.2317081
0.2016378
0.1618782
0.2595519
0.2315339
0.1772984
0.1898126
0.1718283
0.1748671
0.1561087
0.3176523
0.3075718
0.1422170
0.2970828
0.2322794
0.1707829
0.1961874
0.2392083
0.2184510
0.1627913
0.1828211
0.1483217
0.1435109
0.1755532
0.2158893
0.1924903
0.1693000
0.1316109
0.1430938
0.5715490
0.5692514
0.5616650
0.1482762
0.5581990
0.4543802
0.3894231
0.2534972
0.1631085
0.2286278
0.1924180
0.1689943
0.3497037
0.3366898
0.2115191
0.1701889
0.1655116
0.3061819
0.2668948
0.2321676
0.1814863
0.1869751
0.1866008
0.2132090
0.1538178
0.1822431
0.1662987
0.3263442
0.3172574
0.2235295
0.1836969
0.1706546
0.2748548
0.2271581
0.1773448
0.1831526
0.2083345
0.1388194
0.1853462
0.1413336
0.4310935
0.3872515
0.2357878
0.1533053
0.2118341
0.1234880
0.1968048
0.3555967
0.3425304
0.1867459
0.1703648
0.1161730
0.3229272
0.3055408
0.2871570
0.2655620
0.2026418
0.2183279
0.1788667
0.1673226
0.1704309
0.1692132
0.1727095
0.1684137
0.2803797
0.2458390
0.1517952
0.2247987
0.1712942
0.1850234
0.1929522
0.1517842
0.1544844
0.1937860
0.1387033
0.1664162
0.1308931
0.4605391
0.4229869
0.1382037
0.4180106
0.3525957
0.2047198
0.1631981
0.1617680
0.3279028
0.2916967
0.2528627
0.1826479
0.2159789
0.1910044
0.1459100
0.2052896
0.1602704
0.1655218
0.2185342
0.1623898
0.1832565
0.3079511
0.2945664
0.1504180
0.2808648
0.2249696
0.1942925
0.1594191
0.2208372
0.1713589
0.1790305
0.1538958
0.2801984
0.2096042
0.1636034
0.1690338
0.2338603
0.1391807
0.2161154
0.1704941
0.1725553
0.1195442
0.1708660
0.1375949
0.1335785
0.4111848
0.3634066
0.1810990
0.1556762
0.1293986
0.3477505
0.3410705
0.3121737
0.1448749
0.3014058
0.1571048
0.2864478
0.2409830
0.1696483
0.2088676
0.1393880
0.1857005
0.2118591
0.1653455
0.1708692
0.2099494
0.1425664
0.1852431
0.1097116
0.1714077
0.1334612
0.2781819
0.2360319
0.1914537
0.1329554
0.1671183
0.1830343
0.1547780
0.1343321
0.2030981
0.1724910
0.1040462
0.1588166
0.1480551
0.3947984
0.3617452
0.1362552
0.3551832
0.3045719
0.1388483
0.2946322
0.1629820
0.2769706
0.2027552
0.1716200
0.1485852
0.2346015
0.1431915
0.2152710
0.1534148
0.1853265
0.2548640
0.2434020
0.2280321
0.1597272
0.1981689
0.1628072
0.1513490
0.1368494
0.1287575
0.2421435
0.1096891
0.2343955
0.1096932
0.2260972
0.2004572
0.1642538
0.1535952
0.1518741
0.1660315
0.1397073
0.1227617
