# vtk DataFile Version 3.0
vtk output
ASCII
DATASET POLYDATA
POINTS  896  float
0.0000000  0.0000000  0.0287941
-0.0003651  0.0180983  -0.0191554
-0.0065034  0.0001095  0.0078678
-0.0229133  -0.0151218  -0.0048432
-0.0005314  -0.0019044  0.0133952
0.0161787  -0.0139395  -0.0169247
-0.0001594  -0.0005713  0.0241744
0.0108221  0.0161363  0.0120311
0.0014696  -0.0066030  -0.0037803
-0.0077080  -0.0083694  -0.0219572
-0.0047118  -0.0004947  0.0095260
-0.0192646  0.0200716  0.0042305
0.0103083  0.0070338  0.0133019
0.0246752  0.0074955  -0.0007781
-0.0002710  -0.0009713  0.0209406
0.0172991  -0.0153499  0.0150216
0.0016497  -0.0071177  0.0041685
0.0089020  -0.0247103  0.0002435
-0.0002018  -0.0007233  0.0229456
-0.0199784  -0.0052792  0.0172966
0.0083012  -0.0060907  -0.0099539
0.0132603  0.0015152  -0.0145622
-0.0141005  -0.0036047  -0.0027394
-0.0195703  -0.0001002  -0.0191199
0.0154446  0.0102234  0.0036130
0.0163376  0.0180294  -0.0092327
-0.0058041  0.0129218  -0.0047241
-0.0110212  0.0253089  -0.0062196
0.0004719  -0.0043025  0.0091509
-0.0069985  -0.0218576  0.0088186
-0.0018013  -0.0032241  -0.0147553
-0.0023454  0.0069786  -0.0273965
-0.0050543  0.0094560  0.0006137
0.0012999  0.0201970  0.0019233
-0.0006034  -0.0005044  -0.0198218
0.0078046  -0.0034745  -0.0265650
-0.0114543  -0.0029922  0.0040477
-0.0228747  -0.0127599  0.0070993
0.0044199  0.0061952  0.0181740
0.0003987  0.0244020  0.0147086
0.0012021  -0.0060479  0.0060618
0.0233401  -0.0065459  0.0022289
0.0016496  -0.0149894  0.0012674
-0.0045669  -0.0201516  -0.0028283
0.0130296  -0.0093812  0.0015147
0.0181424  -0.0173834  -0.0057974
0.0041750  -0.0187787  -0.0008268
0.0057013  -0.0233082  -0.0117166
0.0122624  0.0082280  0.0069106
0.0084902  0.0057670  -0.0025916
-0.0105368  -0.0059688  0.0194826
-0.0145107  -0.0142506  0.0170338
-0.0000478  -0.0001714  0.0274082
-0.0101073  0.0106170  0.0242324
0.0167557  -0.0077487  0.0004770
0.0197603  -0.0031882  -0.0072749
0.0002486  0.0186562  -0.0000633
0.0048073  0.0269696  -0.0036749
-0.0144072  0.0090215  0.0029972
-0.0227066  0.0099873  -0.0077391
0.0208603  0.0081805  -0.0004526
0.0257770  0.0040096  -0.0119399
-0.0020350  0.0121348  -0.0010227
0.0062852  0.0108471  -0.0097689
-0.0054707  -0.0054597  0.0207061
-0.0060937  -0.0184431  0.0175854
-0.0021557  -0.0179017  -0.0023825
-0.0064379  -0.0199364  -0.0122235
0.0080379  -0.0044271  0.0184473
0.0143435  -0.0009891  0.0171092
-0.0174169  -0.0046017  0.0043269
-0.0229604  -0.0003680  0.0024293
0.0155033  0.0126601  -0.0057479
0.0146338  0.0100047  -0.0151378
-0.0004436  0.0175194  0.0144205
-0.0072051  0.0206293  0.0097191
-0.0017653  -0.0143089  0.0106587
0.0010196  -0.0199766  0.0149158
-0.0103783  0.0062420  0.0073095
-0.0154079  0.0183964  0.0137463
0.0110300  -0.0087945  -0.0149011
0.0112946  -0.0090195  -0.0216474
-0.0187038  -0.0129414  -0.0051902
-0.0179512  -0.0204970  -0.0084866
-0.0058226  -0.0001201  0.0084979
-0.0145351  0.0003538  0.0124056
0.0061864  0.0064468  0.0167124
0.0121272  0.0123334  0.0218104
0.0024072  -0.0161262  0.0006391
0.0010721  -0.0248188  0.0057580
0.0009883  -0.0043899  -0.0075001
0.0043398  0.0026887  -0.0091841
0.0136203  0.0125974  -0.0120447
0.0097720  0.0154709  -0.0175052
-0.0050798  0.0132148  -0.0115826
-0.0078794  0.0095312  -0.0168492
-0.0133066  -0.0034210  -0.0007033
-0.0240145  0.0031791  -0.0048655
0.0090718  0.0068577  0.0143250
0.0231211  0.0004937  0.0147877
0.0018761  0.0155445  0.0145057
0.0067459  0.0252525  0.0077902
-0.0044323  0.0154400  -0.0145413
-0.0095475  0.0196911  -0.0181116
0.0116055  -0.0010534  -0.0153826
0.0144347  0.0032070  -0.0240757
-0.0064290  0.0179324  -0.0061231
-0.0002062  0.0248227  -0.0118327
0.0051855  -0.0041015  0.0200960
0.0084363  -0.0107408  0.0239906
-0.0055868  0.0130097  -0.0067817
-0.0172775  0.0099186  -0.0147642
-0.0046266  0.0147724  -0.0136537
-0.0059092  0.0134829  -0.0218847
-0.0054347  0.0130712  -0.0082220
-0.0021188  0.0065306  -0.0111680
0.0060793  -0.0198622  -0.0076567
0.0092320  -0.0174719  -0.0127740
-0.0182259  -0.0036261  -0.0090672
-0.0241457  -0.0066848  -0.0112982
0.0087439  -0.0090812  0.0037165
0.0119860  -0.0155719  0.0058742
-0.0000717  -0.0039469  -0.0102570
-0.0088371  -0.0128158  -0.0142668
-0.0031230  0.0208636  0.0109509
-0.0042174  0.0267973  0.0060589
-0.0199437  0.0089234  -0.0002907
-0.0270667  0.0078433  0.0004573
0.0074640  -0.0098608  0.0211956
0.0096077  -0.0170829  0.0195723
0.0023352  0.0133593  -0.0070417
0.0040641  0.0179795  -0.0125235
-0.0158935  0.0090798  0.0010175
-0.0143459  0.0096271  -0.0048029
0.0233991  0.0053295  -0.0103491
0.0214986  0.0051483  -0.0161050
0.0059600  -0.0200693  -0.0044567
0.0110763  -0.0246694  -0.0057771
-0.0040116  -0.0194493  -0.0023530
-0.0107620  -0.0246172  -0.0013126
-0.0136785  -0.0005289  0.0110356
-0.0214330  -0.0022571  0.0119786
0.0098866  0.0089716  0.0035863
0.0070108  0.0129932  0.0031828
-0.0023119  -0.0016181  -0.0174397
-0.0084431  0.0014480  -0.0212632
0.0075004  -0.0071879  0.0209818
0.0147225  -0.0084581  0.0230459
-0.0061245  -0.0043543  -0.0176854
-0.0121784  -0.0028502  -0.0190469
-0.0104452  0.0214291  -0.0067273
-0.0155242  0.0219904  -0.0081706
-0.0012824  -0.0034409  -0.0134058
0.0030950  -0.0120914  -0.0224948
0.0138360  0.0031825  0.0135586
0.0140445  -0.0008131  0.0111914
-0.0054890  0.0066520  0.0027899
-0.0021697  0.0052960  -0.0033735
-0.0214169  -0.0032967  0.0042602
-0.0269511  -0.0035700  0.0057153
-0.0081084  -0.0215041  -0.0035249
-0.0128569  -0.0223583  -0.0074300
-0.0010389  0.0174169  -0.0003298
-0.0045437  0.0223811  -0.0001167
-0.0198925  -0.0001066  -0.0141538
-0.0226417  0.0049139  -0.0157446
0.0122719  -0.0077290  -0.0181525
0.0152387  -0.0047963  -0.0207307
-0.0004533  -0.0016245  0.0156588
0.0065078  -0.0003365  0.0125793
-0.0025830  -0.0018377  0.0219680
-0.0070487  0.0004511  0.0202820
0.0114010  -0.0092672  0.0023514
0.0165359  -0.0085975  0.0061029
-0.0035696  -0.0201151  0.0101783
-0.0022286  -0.0264182  0.0110459
-0.0129302  0.0100175  0.0117240
-0.0151813  0.0093077  0.0175583
0.0006910  -0.0048261  0.0082242
0.0060646  -0.0087212  0.0106739
-0.0079012  -0.0106191  -0.0146684
-0.0130076  -0.0125724  -0.0191380
0.0137754  -0.0073899  0.0173949
0.0205909  -0.0056459  0.0176251
-0.0163671  0.0152197  0.0021377
-0.0158556  0.0185291  -0.0014819
-0.0111469  -0.0209737  -0.0068357
-0.0135333  -0.0186336  -0.0108863
-0.0097269  -0.0223327  -0.0020430
-0.0145517  -0.0214187  0.0027930
0.0009670  -0.0054859  0.0070565
0.0054957  -0.0005309  0.0020084
0.0009303  0.0231139  -0.0014209
-0.0012244  0.0274507  -0.0018162
-0.0189770  -0.0027273  -0.0121076
-0.0194240  -0.0060050  -0.0180679
0.0192356  0.0087934  0.0007671
0.0197728  0.0006643  -0.0008513
0.0165616  -0.0102888  0.0147182
0.0207058  -0.0109203  0.0098694
-0.0053400  -0.0007506  0.0216653
-0.0111119  0.0002053  0.0240205
-0.0001036  -0.0003714  0.0257913
-0.0007815  -0.0090618  0.0265415
-0.0117548  -0.0093336  0.0166285
-0.0114807  -0.0108873  0.0113884
-0.0121582  -0.0031551  0.0022423
-0.0118836  -0.0112141  -0.0001677
-0.0023327  -0.0198803  -0.0067421
0.0008827  -0.0232240  -0.0095173
-0.0129260  -0.0105799  0.0136965
-0.0161727  -0.0124528  0.0106487
0.0027283  0.0118655  0.0147149
0.0016036  0.0126390  0.0068289
0.0015668  -0.0068809  0.0005121
-0.0060749  -0.0104111  -0.0016445
0.0044924  -0.0087040  0.0096257
0.0081263  -0.0142243  0.0104300
0.0125120  0.0032733  -0.0214880
0.0108013  0.0083128  -0.0247689
-0.0157781  0.0174847  0.0010253
-0.0131464  0.0250157  0.0011728
-0.0001515  0.0025424  -0.0220394
0.0059841  0.0068273  -0.0210535
0.0037743  0.0225774  0.0096060
0.0016985  0.0267934  0.0066005
0.0185974  0.0050418  -0.0018372
0.0164960  0.0023626  -0.0071468
0.0009790  -0.0031655  0.0266004
0.0043441  -0.0029014  0.0280380
0.0018973  -0.0015150  -0.0235427
0.0011208  -0.0015680  -0.0273307
-0.0173065  -0.0108650  -0.0038501
-0.0176008  -0.0161165  -0.0003450
-0.0161274  0.0118759  0.0033492
-0.0217943  0.0139149  0.0076605
0.0070479  -0.0216970  0.0006314
0.0128786  -0.0247951  0.0069132
0.0013620  0.0214707  -0.0004174
0.0061074  0.0250681  0.0015773
0.0144899  0.0096248  0.0046023
0.0189916  0.0189988  0.0066317
0.0003424  0.0120146  -0.0036180
0.0040207  0.0082150  -0.0045136
-0.0195443  0.0130087  0.0040962
-0.0234733  0.0141737  0.0023216
0.0026797  0.0036239  0.0204542
0.0070770  0.0086508  0.0256350
-0.0046044  -0.0043731  0.0210847
-0.0100114  -0.0047478  0.0248144
-0.0172732  0.0084549  0.0000629
-0.0179375  0.0049179  -0.0032778
0.0031378  0.0127818  0.0112960
0.0078225  0.0169187  0.0055032
-0.0034549  -0.0189851  -0.0023619
-0.0033835  -0.0271078  0.0004483
0.0109328  0.0078200  -0.0232987
0.0093160  0.0123123  -0.0232677
0.0195067  0.0019253  0.0118200
0.0261301  0.0009973  0.0062958
0.0205563  -0.0057265  -0.0043597
0.0268952  -0.0057386  -0.0079378
-0.0135230  -0.0110744  0.0164317
-0.0190698  -0.0122849  0.0144413
-0.0064366  0.0017784  -0.0205698
-0.0082841  0.0061321  -0.0231564
0.0159482  0.0161026  0.0047944
0.0145534  0.0220465  0.0029693
-0.0232791  0.0084249  0.0015255
-0.0257502  0.0080689  0.0055544
-0.0002406  0.0181853  -0.0001646
0.0063917  0.0179017  -0.0033236
0.0100767  -0.0024137  -0.0124122
0.0108346  0.0047021  -0.0108390
0.0156666  0.0123434  -0.0012279
0.0168498  0.0178817  -0.0022133
0.0175613  -0.0130655  0.0137870
0.0194998  -0.0158673  0.0111325
0.0120148  0.0103082  0.0129741
0.0215063  0.0128671  0.0134113
-0.0132431  -0.0034750  0.0041314
-0.0150732  -0.0067324  0.0104390
-0.0063841  -0.0081574  -0.0134734
-0.0121644  -0.0059034  -0.0146404
0.0062812  -0.0134039  0.0106434
0.0067280  -0.0191803  0.0123411
-0.0103018  0.0132103  -0.0105541
-0.0124056  0.0163759  -0.0134125
0.0058088  -0.0102191  0.0098947
0.0104452  -0.0104617  0.0095842
0.0093770  0.0088946  0.0007013
0.0092635  0.0114433  -0.0014218
-0.0046824  0.0076233  0.0258143
-0.0041368  0.0109382  0.0258059
0.0027438  -0.0223426  0.0054715
0.0055166  -0.0259098  0.0105850
[...]
CELL_DATA  895
scalars raio float
LOOKUP_TABLE default
1.2216513
0.2833474
0.1219846
0.2756013
0.1212604
0.2675432
0.2535772
0.1256566
0.2428441
0.1853771
0.1586766
0.1334242
0.1995898
0.1598637
0.1569383
0.1417006
1.2165491
1.2149642
0.7023404
0.1981823
0.1390896
0.1720518
0.1458123
0.1258427
0.6970406
0.6956706
0.4272895
0.2042039
0.1466560
0.1750162
0.0980764
0.1640809
0.4111405
0.1947848
0.1650866
0.1424592
0.3960176
0.2902995
0.1408751
0.2787910
0.2642416
0.2411487
0.2136775
0.1674966
0.1716446
0.1622007
0.1641971
0.1476455
0.3351407
0.3277089
0.3156717
0.1556883
0.3025070
0.2042673
0.1683450
0.1553917
0.2675847
0.2491768
0.1738818
0.2169686
0.1788924
0.1649602
0.1545050
0.1551878
0.1347933
0.6371538
0.6292152
0.1191000
0.6277896
0.3040277
0.1366202
0.2945387
0.1971986
0.1638108
0.1484708
0.2615080
0.2457613
0.2182121
0.1765045
0.1697540
0.1645214
0.1448624
0.6030604
0.5859525
0.1783887
0.1364890
0.1463425
0.5803885
0.2231951
0.1485967
0.1986368
0.1639207
0.1508541
0.5691705
0.5669254
0.5440113
0.4557129
0.1491022
0.4503291
0.2088438
0.1918721
0.1269325
0.4348296
0.4226913
0.4031802
0.3728634
0.1671548
0.3613113
0.1791300
0.3459948
0.2693751
0.1918164
0.2320116
0.1901920
0.1776784
0.2796646
0.2079868
0.1934242
0.1207508
0.2343835
0.1822994
0.1896172
0.2392833
0.2166005
0.1488892
0.1900221
0.1523847
0.2153194
0.1520274
0.1863287
0.1884716
0.1422589
0.1562654
0.4048562
0.3984402
0.3547827
0.1668989
0.3420173
0.3295213
0.1421392
0.3204587
0.3087880
0.1728640
0.2895571
0.2160824
0.1881970
0.1507173
0.2420893
0.1752939
0.2064698
0.1513388
0.1616867
0.2649422
0.2134340
0.1626577
0.1756494
0.2070383
0.1463643
0.1790399
0.1458912
0.2768226
0.2597129
0.1546849
0.2399573
0.1635544
0.2113558
0.1305737
0.1932347
0.1546025
0.1295315
0.2627567
0.1902406
0.1668439
0.1308557
0.2241095
0.2070751
0.1622610
0.1663981
0.1334484
0.2121503
0.1411327
0.1888692
0.1441726
0.1552306
0.1258446
1.1310708
1.1118061
1.0911907
0.1500827
0.1150322
0.1229463
1.0902435
0.1366475
1.0895275
0.8991975
0.1534276
0.1357308
0.1035754
0.8977061
0.3803214
0.1174576
0.3765497
0.1604169
0.1311068
0.1232999
0.3665835
0.1253026
0.3616372
0.3328082
0.1295507
0.3261317
0.1562904
0.3136994
0.3015141
0.2830874
0.2155920
0.1819230
0.1587372
0.2330991
0.1182973
0.2224654
0.1741667
0.1789114
0.1677997
0.1512408
0.2185103
0.1864591
0.1380062
0.1567874
0.1580830
0.8743494
0.8677120
0.1437510
0.8663949
0.8177079
0.5682571
0.1978302
0.1265621
0.1787899
0.1460032
0.1375566
0.5601497
0.5572806
0.4546390
0.1706680
0.1513162
0.1146369
0.4464765
0.3277488
0.1507646
0.3167499
0.2627676
0.1563311
0.2428515
0.2293943
0.2038731
0.1532235
0.1310660
0.2389094
0.2136501
0.1238214
0.1987755
0.1571912
0.3774966
0.3554505
0.0988205
0.3528861
0.3422548
0.2739768
0.2602554
0.1795807
0.2278984
0.1864407
0.1749611
0.1432203
0.2692783
0.2195810
0.1545105
0.1903646
0.2075320
0.1547419
0.1736136
0.1567743
0.2071204
0.1677627
0.1608762
0.4292607
0.3982701
0.1306726
0.3935248
0.2535367
0.1890090
0.1635423
0.1334783
0.2121274
0.1855572
0.1466875
0.3547499
0.3441749
0.2614995
0.1446817
0.2458144
0.1679868
0.2162502
0.1764620
0.1665262
0.2839237
0.2615776
0.1989377
0.1692288
0.1446525
0.2156206
0.1720214
0.1702457
0.1708831
0.1570647
0.2515868
0.2099400
0.1480485
0.1817936
0.1882513
0.1385735
0.1588772
0.1390228
0.7135181
0.7075827
0.6187732
0.1480978
0.6159323
0.1942994
0.1665647
0.1394896
0.6094186
0.6071757
0.5729284
0.2370024
0.2032155
0.1621189
0.1604570
0.1700848
0.1031601
0.1563569
0.5590775
0.2604530
0.1480004
0.2434356
0.2292283
0.1880096
0.1754330
0.1335374
0.5395624
0.5153753
0.1888674
0.1720147
0.1181024
0.5067779
0.3509033
0.2128226
0.1568204
0.1794928
0.1232822
0.1575289
0.3225844
0.2998843
0.2279403
0.1926254
0.1674565
0.2473083
0.2126404
0.1783155
0.1580084
0.1766348
0.1875738
0.1245520
0.1671185
0.4430110
0.4217467
0.2731400
0.2131545
0.1815861
0.1546278
0.2203101
0.1885397
0.1586213
0.3794601
0.3710305
0.2225694
0.1800674
0.1731021
0.3421432
0.2829659
0.2237379
0.1960319
0.1542040
0.2254360
0.1547877
0.1978808
0.2591043
0.2322883
0.1947512
0.1726600
0.1694004
0.1527069
0.2284881
0.2087184
0.1789630
0.1497877
0.1415501
0.2723069
0.2109704
0.1788266
0.1542670
0.2210546
0.1547453
0.1921665
0.3295211
0.3154624
0.1731162
0.2970283
0.1370639
0.2869624
0.2668635
0.1632552
0.2447094
0.1888407
0.1993281
0.1666186
0.1637036
0.1355353
0.4895870
0.4809863
0.1285111
0.4779087
0.3882915
0.3615455
0.2232287
0.1664977
0.1867035
0.3306072
0.2835590
0.2760119
0.1658406
0.2544081
0.2316110
0.1897188
0.1775372
0.1592899
0.1210205
0.2371419
0.1683578
0.2045936
0.1539603
0.1700179
0.2242916
0.1562867
0.1954470
0.3698951
0.3509543
0.3080244
0.1418866
0.2976430
0.2805064
0.1683028
0.2586518
0.1734128
0.2295082
0.1625793
0.2410235
0.2022694
0.1669913
0.1535267
0.1789047
0.1947225
0.1265543
0.1749673
0.1824824
0.1110669
0.1675844
0.2079323
0.1884826
0.1302047
0.1649566
0.1318885
0.4696534
0.4442026
0.1280121
0.4406301
0.2511637
0.1567010
0.2289199
0.2206880
0.1925651
0.1533702
0.1076695
0.4115513
0.4056464
0.3544883
0.3123383
0.1551350
0.2990213
0.2135396
0.1795213
0.1580977
0.2571251
0.2334521
0.1840274
0.1865376
0.1623138
0.2414465
0.1269758
0.2291223
0.1601439
0.1993410
0.2810633
0.2696215
0.2423561
0.1631315
0.2146788
0.1695069
0.1712654
0.1750634
0.1375546
0.1435417
0.2516965
0.2357292
0.1790207
0.1546047
0.1268653
0.1945331
0.1624748
0.1453810
0.1417167
0.2472078
0.1569749
0.1403972
0.1032473
0.2239989
0.2008093
0.1353701
0.1777586
0.1464616
0.8273336
0.8249028
0.8240672
0.1282909
0.8230295
0.7657433
0.3295548
0.3254048
0.1464553
0.3151992
0.1450423
0.3046100
0.2906041
0.2113002
0.1784397
0.1553952
0.2472098
0.2259359
0.1376007
0.2074525
0.1730537
0.1552995
0.1528962
0.1549766
0.1101156
0.7448306
0.5989918
0.1398718
0.5964386
0.3838635
0.1483429
0.3763321
0.3696393
0.3290956
0.1397690
0.3204677
0.2094082
0.1881645
0.1360962
0.2873600
0.2588244
0.2389202
0.2243510
0.1888494
0.1657929
0.1328730
0.1546738
0.1855698
0.1428636
0.1514593
0.2458662
0.2272709
0.1470871
0.2045366
0.1713022
0.1522629
0.1461798
0.1408345
0.5378766
0.5169113
0.5049294
0.1371187
0.5015360
0.4493069
0.2676663
0.2577874
0.1554902
0.2373539
0.2068391
0.1669258
0.1613149
0.1653736
0.1269491
0.4151048
0.2390938
0.1654386
0.2090811
0.1350287
0.1883140
0.3867750
0.3784125
0.1384613
0.3721295
0.3175350
0.1494407
0.3060945
0.2284460
0.1987990
0.1595992
0.2558978
0.2282743
0.1748024
0.1871403
0.1694093
0.2692345
0.2462636
0.2204440
0.1987432
0.1419864
0.1616271
0.1660837
0.1542826
0.3285056
0.3192966
0.1412241
0.3098084
0.2539071
0.2077021
0.1603790
0.1690969
0.1949467
0.2373238
0.2167300
0.1615088
0.1813809
0.1471532
0.1425812
0.2109233
0.1740459
0.1602015
0.2596071
0.2194579
0.2069237
0.1840566
0.1379407
0.1195712
0.1906254
0.1112575
0.1770484
0.5831405
0.5809450
0.5737072
0.1479773
0.5704067
0.4678350
0.3989242
0.2525665
0.1625097
0.2277885
0.1917115
0.1683739
0.3618369
0.3498875
0.2101952
0.1691237
0.1644757
0.3225154
0.2650417
0.2305556
0.1802262
0.1856769
0.1853052
0.2462282
0.1499981
0.2260676
0.1744892
0.1841127
0.1655863
0.3388595
0.3305558
0.2503207
0.1800271
0.2143650
0.1640822
0.1757977
0.2733897
0.2259473
0.1763995
0.1821763
0.2072241
0.1380795
0.1843582
0.1407936
0.4365482
0.3942854
0.2552392
0.1538725
0.2350423
0.1528205
0.2111643
0.1230975
0.1961825
0.3548122
0.3417748
0.1863340
0.1699890
0.1159167
0.3222149
0.3048668
0.2865236
0.2649762
0.2021948
0.2178463
0.1784722
0.1669535
0.1700549
0.1688400
0.1723285
0.1680422
0.2797739
0.2453078
0.1514673
0.2243130
0.1709240
0.1846236
0.1925353
0.1514563
0.1541507
0.1934302
0.1384486
0.1661107
0.1306747
0.4769518
0.4364102
0.1378678
0.4317747
0.3621204
0.2325278
0.1598092
0.2040125
0.1441156
0.1764965
0.3268344
0.2907464
0.2520388
0.1820528
0.2152752
0.1903821
0.1454346
0.2046207
0.1597482
0.1649825
0.2178222
0.1618607
0.1826594
0.3207865
0.3086484
0.1498138
0.2964037
0.2488732
0.1611459
0.2239377
0.1934013
0.1586878
0.2198477
0.1705910
0.1782282
0.1533637
0.2938851
0.2793635
0.2089796
0.1631159
0.1685302
0.2331635
0.1387660
0.2154715
0.1699861
0.1720412
0.1529742
0.1194402
0.1707332
0.1374880
0.1334747
0.4217916
0.4182120
0.3724897
0.1808679
0.1554776
0.1292335
0.3576952
0.3514266
0.3246091
0.1442899
0.3148134
0.1562995
0.3014083
0.2627808
0.2125910
0.1768127
0.1597966
0.2043861
0.1363973
0.1817161
0.2098111
0.1637471
0.1692174
0.2095152
0.1422715
0.1848600
0.1094847
0.1710532
0.1332178
0.2779070
0.2357987
0.1912646
0.1328241
0.1669532
0.1828535
0.1546251
0.1341994
0.2028975
0.1723206
0.1039435
0.1586597
0.1479089
0.1237330
0.4173321
0.3882395
0.1360743
0.3825856
0.3406268
0.1262784
0.3347406
0.1385691
0.3266305
0.1982079
0.1528993
0.1615009
0.3002240
0.2920742
0.2298266
0.2079862
0.1632440
0.1668735
0.1464715
0.2337786
0.1426892
0.2145158
0.1528767
0.1846764
0.1289553
0.2544688
0.2430246
0.2276785
0.1594795
0.1978616
0.1625548
0.1511143
0.1366372
0.1285578
0.2419618
0.1096068
0.2342196
0.1096109
0.2259276
0.2003068
0.1641305
0.1534799
0.1517601
0.1915452
0.1741223
0.1483779
0.1262530
0.1204743
