# vtk DataFile Version 3.0
vtk output
ASCII
DATASET POLYDATA
POINTS  640  float
0.0000000  0.0000000  0.0287941
-0.0003651  0.0180983  -0.0191554
-0.0065034  0.0001095  0.0078678
-0.0229133  -0.0151218  -0.0048432
-0.0005314  -0.0019044  0.0133952
0.0161787  -0.0139395  -0.0169247
-0.0001594  -0.0005713  0.0241744
0.0108221  0.0161363  0.0120311
0.0014696  -0.0066030  -0.0037803
-0.0077080  -0.0083694  -0.0219572
-0.0047118  -0.0004947  0.0095260
-0.0192646  0.0200716  0.0042305
0.0103083  0.0070338  0.0133019
0.0246752  0.0074955  -0.0007781
-0.0002710  -0.0009713  0.0209406
0.0172991  -0.0153499  0.0150216
0.0016497  -0.0071177  0.0041685
0.0089020  -0.0247103  0.0002435
-0.0002018  -0.0007233  0.0229456
-0.0199784  -0.0052792  0.0172966
0.0083012  -0.0060907  -0.0099539
0.0132603  0.0015152  -0.0145622
-0.0141005  -0.0036047  -0.0027394
-0.0195703  -0.0001002  -0.0191199
0.0154446  0.0102234  0.0036130
0.0163376  0.0180294  -0.0092327
-0.0058041  0.0129218  -0.0047241
-0.0110212  0.0253089  -0.0062196
0.0004719  -0.0043025  0.0091509
-0.0069985  -0.0218576  0.0088186
-0.0018013  -0.0032241  -0.0147553
-0.0023454  0.0069786  -0.0273965
-0.0050543  0.0094560  0.0006137
0.0012999  0.0201970  0.0019233
-0.0006034  -0.0005044  -0.0198218
0.0078046  -0.0034745  -0.0265650
-0.0114543  -0.0029922  0.0040477
-0.0228747  -0.0127599  0.0070993
0.0044199  0.0061952  0.0181740
0.0003987  0.0244020  0.0147086
0.0012021  -0.0060479  0.0060618
0.0233401  -0.0065459  0.0022289
0.0016496  -0.0149894  0.0012674
-0.0045669  -0.0201516  -0.0028283
0.0130296  -0.0093812  0.0015147
0.0181424  -0.0173834  -0.0057974
0.0041750  -0.0187787  -0.0008268
0.0057013  -0.0233082  -0.0117166
0.0122624  0.0082280  0.0069106
0.0084902  0.0057670  -0.0025916
-0.0105368  -0.0059688  0.0194826
-0.0145107  -0.0142506  0.0170338
-0.0000478  -0.0001714  0.0274082
-0.0101073  0.0106170  0.0242324
0.0167557  -0.0077487  0.0004770
0.0197603  -0.0031882  -0.0072749
0.0002486  0.0186562  -0.0000633
0.0048073  0.0269696  -0.0036749
-0.0144072  0.0090215  0.0029972
-0.0227066  0.0099873  -0.0077391
0.0208603  0.0081805  -0.0004526
0.0257770  0.0040096  -0.0119399
-0.0020350  0.0121348  -0.0010227
0.0062852  0.0108471  -0.0097689
-0.0054707  -0.0054597  0.0207061
-0.0060937  -0.0184431  0.0175854
-0.0021557  -0.0179017  -0.0023825
-0.0064379  -0.0199364  -0.0122235
0.0080379  -0.0044271  0.0184473
0.0143435  -0.0009891  0.0171092
-0.0174169  -0.0046017  0.0043269
-0.0229604  -0.0003680  0.0024293
0.0155033  0.0126601  -0.0057479
0.0146338  0.0100047  -0.0151378
-0.0004436  0.0175194  0.0144205
-0.0072051  0.0206293  0.0097191
-0.0017653  -0.0143089  0.0106587
0.0010196  -0.0199766  0.0149158
-0.0103783  0.0062420  0.0073095
-0.0154079  0.0183964  0.0137463
0.0110300  -0.0087945  -0.0149011
0.0112946  -0.0090195  -0.0216474
-0.0187038  -0.0129414  -0.0051902
-0.0179512  -0.0204970  -0.0084866
-0.0058226  -0.0001201  0.0084979
-0.0145351  0.0003538  0.0124056
0.0061864  0.0064468  0.0167124
0.0121272  0.0123334  0.0218104
0.0024072  -0.0161262  0.0006391
0.0010721  -0.0248188  0.0057580
0.0009883  -0.0043899  -0.0075001
0.0043398  0.0026887  -0.0091841
0.0136203  0.0125974  -0.0120447
0.0097720  0.0154709  -0.0175052
-0.0050798  0.0132148  -0.0115826
-0.0078794  0.0095312  -0.0168492
-0.0133066  -0.0034210  -0.0007033
-0.0240145  0.0031791  -0.0048655
0.0090718  0.0068577  0.0143250
0.0231211  0.0004937  0.0147877
0.0018761  0.0155445  0.0145057
0.0067459  0.0252525  0.0077902
-0.0044323  0.0154400  -0.0145413
-0.0095475  0.0196911  -0.0181116
0.0116055  -0.0010534  -0.0153826
0.0144347  0.0032070  -0.0240757
-0.0064290  0.0179324  -0.0061231
-0.0002062  0.0248227  -0.0118327
0.0051855  -0.0041015  0.0200960
0.0084363  -0.0107408  0.0239906
-0.0055868  0.0130097  -0.0067817
-0.0172775  0.0099186  -0.0147642
-0.0046266  0.0147724  -0.0136537
-0.0059092  0.0134829  -0.0218847
-0.0054347  0.0130712  -0.0082220
-0.0021188  0.0065306  -0.0111680
0.0060793  -0.0198622  -0.0076567
0.0092320  -0.0174719  -0.0127740
-0.0182259  -0.0036261  -0.0090672
-0.0241457  -0.0066848  -0.0112982
0.0087439  -0.0090812  0.0037165
0.0119860  -0.0155719  0.0058742
-0.0000717  -0.0039469  -0.0102570
-0.0088371  -0.0128158  -0.0142668
-0.0031230  0.0208636  0.0109509
-0.0042174  0.0267973  0.0060589
-0.0199437  0.0089234  -0.0002907
-0.0270667  0.0078433  0.0004573
0.0074640  -0.0098608  0.0211956
0.0096077  -0.0170829  0.0195723
0.0023352  0.0133593  -0.0070417
0.0040641  0.0179795  -0.0125235
-0.0158935  0.0090798  0.0010175
-0.0143459  0.0096271  -0.0048029
0.0233991  0.0053295  -0.0103491
0.0214986  0.0051483  -0.0161050
0.0059600  -0.0200693  -0.0044567
0.0110763  -0.0246694  -0.0057771
-0.0040116  -0.0194493  -0.0023530
-0.0107620  -0.0246172  -0.0013126
-0.0136785  -0.0005289  0.0110356
-0.0214330  -0.0022571  0.0119786
0.0098866  0.0089716  0.0035863
0.0070108  0.0129932  0.0031828
-0.0023119  -0.0016181  -0.0174397
-0.0084431  0.0014480  -0.0212632
0.0075004  -0.0071879  0.0209818
0.0147225  -0.0084581  0.0230459
-0.0061245  -0.0043543  -0.0176854
-0.0121784  -0.0028502  -0.0190469
-0.0104452  0.0214291  -0.0067273
-0.0155242  0.0219904  -0.0081706
-0.0012824  -0.0034409  -0.0134058
0.0030950  -0.0120914  -0.0224948
0.0138360  0.0031825  0.0135586
0.0140445  -0.0008131  0.0111914
-0.0054890  0.0066520  0.0027899
-0.0021697  0.0052960  -0.0033735
-0.0214169  -0.0032967  0.0042602
-0.0269511  -0.0035700  0.0057153
-0.0081084  -0.0215041  -0.0035249
-0.0128569  -0.0223583  -0.0074300
-0.0010389  0.0174169  -0.0003298
-0.0045437  0.0223811  -0.0001167
-0.0198925  -0.0001066  -0.0141538
-0.0226417  0.0049139  -0.0157446
0.0122719  -0.0077290  -0.0181525
0.0152387  -0.0047963  -0.0207307
-0.0004533  -0.0016245  0.0156588
0.0065078  -0.0003365  0.0125793
-0.0025830  -0.0018377  0.0219680
-0.0070487  0.0004511  0.0202820
0.0114010  -0.0092672  0.0023514
0.0165359  -0.0085975  0.0061029
-0.0035696  -0.0201151  0.0101783
-0.0022286  -0.0264182  0.0110459
-0.0129302  0.0100175  0.0117240
-0.0151813  0.0093077  0.0175583
0.0006910  -0.0048261  0.0082242
0.0060646  -0.0087212  0.0106739
-0.0079012  -0.0106191  -0.0146684
-0.0130076  -0.0125724  -0.0191380
0.0137754  -0.0073899  0.0173949
0.0205909  -0.0056459  0.0176251
-0.0163671  0.0152197  0.0021377
-0.0158556  0.0185291  -0.0014819
-0.0111469  -0.0209737  -0.0068357
-0.0135333  -0.0186336  -0.0108863
-0.0097269  -0.0223327  -0.0020430
-0.0145517  -0.0214187  0.0027930
0.0009670  -0.0054859  0.0070565
0.0054957  -0.0005309  0.0020084
0.0009303  0.0231139  -0.0014209
-0.0012244  0.0274507  -0.0018162
-0.0189770  -0.0027273  -0.0121076
-0.0194240  -0.0060050  -0.0180679
0.0192356  0.0087934  0.0007671
0.0197728  0.0006643  -0.0008513
0.0165616  -0.0102888  0.0147182
0.0207058  -0.0109203  0.0098694
-0.0053400  -0.0007506  0.0216653
-0.0111119  0.0002053  0.0240205
-0.0001036  -0.0003714  0.0257913
-0.0007815  -0.0090618  0.0265415
-0.0117548  -0.0093336  0.0166285
-0.0114807  -0.0108873  0.0113884
-0.0121582  -0.0031551  0.0022423
-0.0118836  -0.0112141  -0.0001677
-0.0023327  -0.0198803  -0.0067421
0.0008827  -0.0232240  -0.0095173
-0.0129260  -0.0105799  0.0136965
-0.0161727  -0.0124528  0.0106487
0.0027283  0.0118655  0.0147149
0.0016036  0.0126390  0.0068289
0.0015668  -0.0068809  0.0005121
-0.0060749  -0.0104111  -0.0016445
0.0044924  -0.0087040  0.0096257
0.0081263  -0.0142243  0.0104300
0.0125120  0.0032733  -0.0214880
0.0108013  0.0083128  -0.0247689
-0.0157781  0.0174847  0.0010253
-0.0131464  0.0250157  0.0011728
-0.0001515  0.0025424  -0.0220394
0.0059841  0.0068273  -0.0210535
0.0037743  0.0225774  0.0096060
0.0016985  0.0267934  0.0066005
0.0185974  0.0050418  -0.0018372
0.0164960  0.0023626  -0.0071468
0.0009790  -0.0031655  0.0266004
0.0043441  -0.0029014  0.0280380
0.0018973  -0.0015150  -0.0235427
0.0011208  -0.0015680  -0.0273307
-0.0173065  -0.0108650  -0.0038501
-0.0176008  -0.0161165  -0.0003450
-0.0161274  0.0118759  0.0033492
-0.0217943  0.0139149  0.0076605
0.0070479  -0.0216970  0.0006314
0.0128786  -0.0247951  0.0069132
0.0013620  0.0214707  -0.0004174
0.0061074  0.0250681  0.0015773
0.0144899  0.0096248  0.0046023
0.0189916  0.0189988  0.0066317
0.0003424  0.0120146  -0.0036180
0.0040207  0.0082150  -0.0045136
-0.0195443  0.0130087  0.0040962
-0.0234733  0.0141737  0.0023216
0.0026797  0.0036239  0.0204542
0.0070770  0.0086508  0.0256350
-0.0046044  -0.0043731  0.0210847
-0.0100114  -0.0047478  0.0248144
-0.0172732  0.0084549  0.0000629
-0.0179375  0.0049179  -0.0032778
0.0031378  0.0127818  0.0112960
0.0078225  0.0169187  0.0055032
-0.0034549  -0.0189851  -0.0023619
-0.0033835  -0.0271078  0.0004483
0.0109328  0.0078200  -0.0232987
0.0093160  0.0123123  -0.0232677
0.0195067  0.0019253  0.0118200
0.0261301  0.0009973  0.0062958
0.0205563  -0.0057265  -0.0043597
0.0268952  -0.0057386  -0.0079378
-0.0135230  -0.0110744  0.0164317
-0.0190698  -0.0122849  0.0144413
-0.0064366  0.0017784  -0.0205698
-0.0082841  0.0061321  -0.0231564
0.0159482  0.0161026  0.0047944
0.0145534  0.0220465  0.0029693
-0.0232791  0.0084249  0.0015255
-0.0257502  0.0080689  0.0055544
-0.0002406  0.0181853  -0.0001646
0.0063917  0.0179017  -0.0033236
0.0100767  -0.0024137  -0.0124122
0.0108346  0.0047021  -0.0108390
0.0156666  0.0123434  -0.0012279
0.0168498  0.0178817  -0.0022133
0.0175613  -0.0130655  0.0137870
0.0194998  -0.0158673  0.0111325
0.0120148  0.0103082  0.0129741
0.0215063  0.0128671  0.0134113
-0.0132431  -0.0034750  0.0041314
-0.0150732  -0.0067324  0.0104390
-0.0063841  -0.0081574  -0.0134734
-0.0121644  -0.0059034  -0.0146404
0.0062812  -0.0134039  0.0106434
0.0067280  -0.0191803  0.0123411
-0.0103018  0.0132103  -0.0105541
-0.0124056  0.0163759  -0.0134125
0.0058088  -0.0102191  0.0098947
0.0104452  -0.0104617  0.0095842
0.0093770  0.0088946  0.0007013
0.0092635  0.0114433  -0.0014218
-0.0046824  0.0076233  0.0258143
-0.0041368  0.0109382  0.0258059
0.0027438  -0.0223426  0.0054715
0.0055166  -0.0259098  0.0105850
[...]
CELL_DATA  639
scalars raio float
LOOKUP_TABLE default
1.1135721
0.2477292
0.1218938
0.2374734
0.1275673
0.2245077
0.1895891
0.1622820
0.1364558
0.1651138
1.1094703
1.1082291
0.6336129
0.1751121
0.1484059
0.1280811
0.6291227
0.6274302
0.3589609
0.1775007
0.1498793
0.1305610
0.3438680
0.1964688
0.1665138
0.1436908
0.3210028
0.2381516
0.1441566
0.2190546
0.1789018
0.1685155
0.2694822
0.2498986
0.1682870
0.2213146
0.1877297
0.1616493
0.1582621
0.5855301
0.5822466
0.2784409
0.1374622
0.2667928
0.1561183
0.2476300
0.2198712
0.1778466
0.1710447
0.1657724
0.5601963
0.5430040
0.1792475
0.1371461
0.1470471
0.5364136
0.2246416
0.1495598
0.1999242
0.1649831
0.1518318
0.5229457
0.5202269
0.4976345
0.4192744
0.1507650
0.4126730
0.2114086
0.1942285
0.1284913
0.3932819
0.3858188
0.3734909
0.3353171
0.1833534
0.3159455
0.2401327
0.1968493
0.1838976
0.2605669
0.1458602
0.2443424
0.1900453
0.1976740
0.2432771
0.2202157
0.1513743
0.1931938
0.1549282
0.1746928
0.1503354
0.3672442
0.3590977
0.3159375
0.1694849
0.2987627
0.2811433
0.1448244
0.2677009
0.2488065
0.1801577
0.2121987
0.1558045
0.1644247
0.2453556
0.2180088
0.1661442
0.1794143
0.1639731
0.1477218
0.2599104
0.2392940
0.1579200
0.2137353
0.1705026
0.1687723
0.1568048
0.1304319
0.2503683
0.1907880
0.1673240
0.1312323
0.2060601
0.1614657
0.1655825
0.1497531
0.1260835
1.0343786
1.0165836
0.9954061
0.1502148
0.1151335
0.1230545
0.9942645
0.1367916
0.9934007
0.8242751
0.3584304
0.1254895
0.3532280
0.3334240
0.1297904
0.3267351
0.1565796
0.3142799
0.3020720
0.2836111
0.2159909
0.1822596
0.1590309
0.2335304
0.1185161
0.2228770
0.1744890
0.1792424
0.1681102
0.1515207
0.1913384
0.1416176
0.1608903
0.8010343
0.7943596
0.1440617
0.7927770
0.7527615
0.5394963
0.1790585
0.1462226
0.1377633
0.5328396
0.5296276
0.4235548
0.1328214
0.4191555
0.3178777
0.1519072
0.3058659
0.2445280
0.2309778
0.2052805
0.1542813
0.1319708
0.2409779
0.2154999
0.1248934
0.2004965
0.1585522
0.3462780
0.3187580
0.0998646
0.3154566
0.3014483
0.2530185
0.2352986
0.1924947
0.1806424
0.1469060
0.2237052
0.1574126
0.1939401
0.1587276
0.2090335
0.1693122
0.1623622
0.4171275
0.3914351
0.1313093
0.3864463
0.2548763
0.1900077
0.1644065
0.1341836
0.2132483
0.1865377
0.1474626
0.3452555
0.3338374
0.2400317
0.1463735
0.2203122
0.1705689
0.1789540
0.2859274
0.2634236
0.2003416
0.1704231
0.1456733
0.2171422
0.1732354
0.1714471
0.1720890
0.1580707
0.2327090
0.2121427
0.1496019
0.1837010
0.1450949
0.1395803
0.6459539
0.6405445
0.5665181
0.1489681
0.5630636
0.1955387
0.1676272
0.1403793
0.5550905
0.5523269
0.5213468
0.2389923
0.2049218
0.1634801
0.1618042
0.1715129
0.1040262
0.1576697
0.5040377
0.2479630
0.1488167
0.2286271
0.1875165
0.1749728
0.4831829
0.4675747
0.1428314
0.4630891
0.2812837
0.1896809
0.1625580
0.1362417
0.2489600
0.2319617
0.1945179
0.1723656
0.1434164
0.4255331
0.4166655
0.2765450
0.2158118
0.1838498
0.1565555
0.2230565
0.1908901
0.1605987
0.3712981
0.3621151
0.2257722
0.1826587
0.1755931
0.3301159
0.2877804
0.2275447
0.1993673
0.1568277
0.2292717
0.1574213
0.2012477
0.2298399
0.1869521
0.1776592
0.1547351
0.1677144
0.2195483
0.1731569
0.1753406
0.2992285
0.2808085
0.1776771
0.2547548
0.1413961
0.2393191
0.1732751
0.2041165
0.1669050
0.1364751
0.4326638
0.4280200
0.1294328
0.4240377
0.3302210
0.2879554
0.2083175
0.1886122
0.1325795
0.2457224
0.1744495
0.2119963
0.1595310
0.1761696
0.2297821
0.1601126
0.2002315
0.3426668
0.3107425
0.1431387
0.3002696
0.2829817
0.1697880
0.2609342
0.1749431
0.2315335
0.1640139
0.2170866
0.1622406
0.1813079
0.1371547
0.1886590
0.1303266
0.1651110
0.4154469
0.4010108
0.1289122
0.3965200
0.2251192
0.1623163
0.1924904
0.1777167
0.1149625
0.3706862
0.3143259
0.2788844
0.1587191
0.2605719
0.1743188
0.2314291
0.1965745
0.1686781
0.2107831
0.1389051
0.1883784
0.2708964
0.2435020
0.1639029
0.2156939
0.1703084
0.1720752
0.1758912
0.1932598
0.1351668
0.1680825
0.2335666
0.1112399
0.2248333
0.2015574
0.1358744
0.1784208
0.1470072
0.7490629
0.7460815
0.7450548
0.1285297
0.7437776
0.6913693
0.2680414
0.2611981
0.1684163
0.2353932
0.2076315
0.1450104
0.1807162
0.1599473
0.1128630
0.6776700
0.5214238
0.3230233
0.1492760
0.3120269
0.2781723
0.1662480
0.2567753
0.2384439
0.2107458
0.1866980
0.1418206
0.1613022
0.1499741
0.2068794
0.1732643
0.1540070
0.4763093
0.4663080
0.4578152
0.1380483
0.4535924
0.4003278
0.2286910
0.2139189
0.1684753
0.1710799
0.1294896
0.3737220
0.2118276
0.1706793
0.1654962
0.3495017
0.3387441
0.3223878
0.1517246
0.3107725
0.2319373
0.2018372
0.1620383
0.2598086
0.2317629
0.1774738
0.1900003
0.1719983
0.1750401
0.1563507
0.3078216
0.2970267
0.2322356
0.1707507
0.1961504
0.2391631
0.2184098
0.1627605
0.1827866
0.1482937
0.1436171
0.1758708
0.1881925
0.1506659
0.1480482
0.5533621
0.5508960
0.5427274
0.1486806
0.5389821
0.4407737
0.3802499
0.2268885
0.1653232
0.1927511
0.3511540
0.3380861
0.2123963
0.1708947
0.1661980
0.3074516
0.2680016
0.2331304
0.1822389
0.1877505
0.1873747
0.2140932
0.1544557
0.1829988
0.1669884
0.3129643
0.3029084
0.2248043
0.1847446
0.1716278
0.2542318
0.2300354
0.1795912
0.1854725
0.1620993
0.1419606
0.4139672
0.3648415
0.2383905
0.1549975
0.2141723
0.1248511
0.1989772
0.3271567
0.3108778
0.1896070
0.1729749
0.1179528
0.2853244
0.2604831
0.2305262
0.1839106
0.1820171
0.1756948
0.1770944
0.1706695
0.2817967
0.2470814
0.1525624
0.2259348
0.1721598
0.1859584
0.1939273
0.1525513
0.1552652
0.1942306
0.1390215
0.1667980
0.1311420
0.4326621
0.3973529
0.1390995
0.3915877
0.3281002
0.2069879
0.1650062
0.1635603
0.2979554
0.2495094
0.2211567
0.1955835
0.1494080
0.1677008
0.2218475
0.1648519
0.1860350
0.2913316
0.2757364
0.1524262
0.2592432
0.1821536
0.2249242
0.1745302
0.1823437
0.1555288
0.2633059
0.2115189
0.1650979
0.1705780
0.2063902
0.1445656
0.1793628
0.1196350
0.1709801
0.1376868
0.1336677
0.4006218
0.3572725
0.1811294
0.1557023
0.1294203
0.3410266
0.3121336
0.1448563
0.3013671
0.1570847
0.2864110
0.2409520
0.1696265
0.2088408
0.1393701
0.1856766
0.2118319
0.1653242
0.1708472
0.2099224
0.1425481
0.1852193
0.1096975
0.1713857
0.2654062
0.2362652
0.1916430
0.1330869
0.1672836
0.1832153
0.1549311
0.1344649
0.1765893
0.1065183
0.1625899
0.3829088
0.3474080
0.1362839
0.3402715
0.3045907
0.1388569
0.2946504
0.1629921
0.2769877
0.2027677
0.1716306
0.1485944
0.2346160
0.1432004
0.2152842
0.1534243
0.1853379
0.2233355
0.2045827
0.1608771
0.1638505
0.1371014
0.2422262
0.1097266
0.2344755
0.1097307
0.2261744
0.2005257
0.1643099
0.1536477
0.1519260
0.1660496
0.1397226
0.1227751
