# vtk DataFile Version 3.0
vtk output
ASCII
DATASET POLYDATA
POINTS  384  float
0.0000000  0.0000000  0.0287941
-0.0003651  0.0180983  -0.0191554
-0.0065034  0.0001095  0.0078678
-0.0229133  -0.0151218  -0.0048432
-0.0005314  -0.0019044  0.0133952
0.0161787  -0.0139395  -0.0169247
-0.0001594  -0.0005713  0.0241744
0.0108221  0.0161363  0.0120311
0.0014696  -0.0066030  -0.0037803
-0.0077080  -0.0083694  -0.0219572
-0.0047118  -0.0004947  0.0095260
-0.0192646  0.0200716  0.0042305
0.0103083  0.0070338  0.0133019
0.0246752  0.0074955  -0.0007781
-0.0002710  -0.0009713  0.0209406
0.0172991  -0.0153499  0.0150216
0.0016497  -0.0071177  0.0041685
0.0089020  -0.0247103  0.0002435
-0.0002018  -0.0007233  0.0229456
-0.0199784  -0.0052792  0.0172966
0.0083012  -0.0060907  -0.0099539
0.0132603  0.0015152  -0.0145622
-0.0141005  -0.0036047  -0.0027394
-0.0195703  -0.0001002  -0.0191199
0.0154446  0.0102234  0.0036130
0.0163376  0.0180294  -0.0092327
-0.0058041  0.0129218  -0.0047241
-0.0110212  0.0253089  -0.0062196
0.0004719  -0.0043025  0.0091509
-0.0069985  -0.0218576  0.0088186
-0.0018013  -0.0032241  -0.0147553
-0.0023454  0.0069786  -0.0273965
-0.0050543  0.0094560  0.0006137
0.0012999  0.0201970  0.0019233
-0.0006034  -0.0005044  -0.0198218
0.0078046  -0.0034745  -0.0265650
-0.0114543  -0.0029922  0.0040477
-0.0228747  -0.0127599  0.0070993
0.0044199  0.0061952  0.0181740
0.0003987  0.0244020  0.0147086
0.0012021  -0.0060479  0.0060618
0.0233401  -0.0065459  0.0022289
0.0016496  -0.0149894  0.0012674
-0.0045669  -0.0201516  -0.0028283
0.0130296  -0.0093812  0.0015147
0.0181424  -0.0173834  -0.0057974
0.0041750  -0.0187787  -0.0008268
0.0057013  -0.0233082  -0.0117166
0.0122624  0.0082280  0.0069106
0.0084902  0.0057670  -0.0025916
-0.0105368  -0.0059688  0.0194826
-0.0145107  -0.0142506  0.0170338
-0.0000478  -0.0001714  0.0274082
-0.0101073  0.0106170  0.0242324
0.0167557  -0.0077487  0.0004770
0.0197603  -0.0031882  -0.0072749
0.0002486  0.0186562  -0.0000633
0.0048073  0.0269696  -0.0036749
-0.0144072  0.0090215  0.0029972
-0.0227066  0.0099873  -0.0077391
0.0208603  0.0081805  -0.0004526
0.0257770  0.0040096  -0.0119399
-0.0020350  0.0121348  -0.0010227
0.0062852  0.0108471  -0.0097689
-0.0054707  -0.0054597  0.0207061
-0.0060937  -0.0184431  0.0175854
-0.0021557  -0.0179017  -0.0023825
-0.0064379  -0.0199364  -0.0122235
0.0080379  -0.0044271  0.0184473
0.0143435  -0.0009891  0.0171092
-0.0174169  -0.0046017  0.0043269
-0.0229604  -0.0003680  0.0024293
0.0155033  0.0126601  -0.0057479
0.0146338  0.0100047  -0.0151378
-0.0004436  0.0175194  0.0144205
-0.0072051  0.0206293  0.0097191
-0.0017653  -0.0143089  0.0106587
0.0010196  -0.0199766  0.0149158
-0.0103783  0.0062420  0.0073095
-0.0154079  0.0183964  0.0137463
0.0110300  -0.0087945  -0.0149011
0.0112946  -0.0090195  -0.0216474
-0.0187038  -0.0129414  -0.0051902
-0.0179512  -0.0204970  -0.0084866
-0.0058226  -0.0001201  0.0084979
-0.0145351  0.0003538  0.0124056
0.0061864  0.0064468  0.0167124
0.0121272  0.0123334  0.0218104
0.0024072  -0.0161262  0.0006391
0.0010721  -0.0248188  0.0057580
0.0009883  -0.0043899  -0.0075001
0.0043398  0.0026887  -0.0091841
0.0136203  0.0125974  -0.0120447
0.0097720  0.0154709  -0.0175052
-0.0050798  0.0132148  -0.0115826
-0.0078794  0.0095312  -0.0168492
-0.0133066  -0.0034210  -0.0007033
-0.0240145  0.0031791  -0.0048655
0.0090718  0.0068577  0.0143250
0.0231211  0.0004937  0.0147877
0.0018761  0.0155445  0.0145057
0.0067459  0.0252525  0.0077902
-0.0044323  0.0154400  -0.0145413
-0.0095475  0.0196911  -0.0181116
0.0116055  -0.0010534  -0.0153826
0.0144347  0.0032070  -0.0240757
-0.0064290  0.0179324  -0.0061231
-0.0002062  0.0248227  -0.0118327
0.0051855  -0.0041015  0.0200960
0.0084363  -0.0107408  0.0239906
-0.0055868  0.0130097  -0.0067817
-0.0172775  0.0099186  -0.0147642
-0.0046266  0.0147724  -0.0136537
-0.0059092  0.0134829  -0.0218847
-0.0054347  0.0130712  -0.0082220
-0.0021188  0.0065306  -0.0111680
0.0060793  -0.0198622  -0.0076567
0.0092320  -0.0174719  -0.0127740
-0.0182259  -0.0036261  -0.0090672
-0.0241457  -0.0066848  -0.0112982
0.0087439  -0.0090812  0.0037165
0.0119860  -0.0155719  0.0058742
-0.0000717  -0.0039469  -0.0102570
-0.0088371  -0.0128158  -0.0142668
-0.0031230  0.0208636  0.0109509
-0.0042174  0.0267973  0.0060589
-0.0199437  0.0089234  -0.0002907
-0.0270667  0.0078433  0.0004573
0.0074640  -0.0098608  0.0211956
0.0096077  -0.0170829  0.0195723
0.0023352  0.0133593  -0.0070417
0.0040641  0.0179795  -0.0125235
-0.0158935  0.0090798  0.0010175
-0.0143459  0.0096271  -0.0048029
0.0233991  0.0053295  -0.0103491
0.0214986  0.0051483  -0.0161050
0.0059600  -0.0200693  -0.0044567
0.0110763  -0.0246694  -0.0057771
-0.0040116  -0.0194493  -0.0023530
-0.0107620  -0.0246172  -0.0013126
-0.0136785  -0.0005289  0.0110356
-0.0214330  -0.0022571  0.0119786
0.0098866  0.0089716  0.0035863
0.0070108  0.0129932  0.0031828
-0.0023119  -0.0016181  -0.0174397
-0.0084431  0.0014480  -0.0212632
0.0075004  -0.0071879  0.0209818
0.0147225  -0.0084581  0.0230459
-0.0061245  -0.0043543  -0.0176854
-0.0121784  -0.0028502  -0.0190469
-0.0104452  0.0214291  -0.0067273
-0.0155242  0.0219904  -0.0081706
-0.0012824  -0.0034409  -0.0134058
0.0030950  -0.0120914  -0.0224948
0.0138360  0.0031825  0.0135586
0.0140445  -0.0008131  0.0111914
-0.0054890  0.0066520  0.0027899
-0.0021697  0.0052960  -0.0033735
-0.0214169  -0.0032967  0.0042602
-0.0269511  -0.0035700  0.0057153
-0.0081084  -0.0215041  -0.0035249
-0.0128569  -0.0223583  -0.0074300
-0.0010389  0.0174169  -0.0003298
-0.0045437  0.0223811  -0.0001167
-0.0198925  -0.0001066  -0.0141538
-0.0226417  0.0049139  -0.0157446
0.0122719  -0.0077290  -0.0181525
0.0152387  -0.0047963  -0.0207307
-0.0004533  -0.0016245  0.0156588
0.0065078  -0.0003365  0.0125793
-0.0025830  -0.0018377  0.0219680
-0.0070487  0.0004511  0.0202820
0.0114010  -0.0092672  0.0023514
0.0165359  -0.0085975  0.0061029
-0.0035696  -0.0201151  0.0101783
-0.0022286  -0.0264182  0.0110459
-0.0129302  0.0100175  0.0117240
-0.0151813  0.0093077  0.0175583
0.0006910  -0.0048261  0.0082242
0.0060646  -0.0087212  0.0106739
-0.0079012  -0.0106191  -0.0146684
-0.0130076  -0.0125724  -0.0191380
0.0137754  -0.0073899  0.0173949
0.0205909  -0.0056459  0.0176251
-0.0163671  0.0152197  0.0021377
-0.0158556  0.0185291  -0.0014819
-0.0111469  -0.0209737  -0.0068357
-0.0135333  -0.0186336  -0.0108863
-0.0097269  -0.0223327  -0.0020430
-0.0145517  -0.0214187  0.0027930
0.0009670  -0.0054859  0.0070565
0.0054957  -0.0005309  0.0020084
0.0009303  0.0231139  -0.0014209
-0.0012244  0.0274507  -0.0018162
-0.0189770  -0.0027273  -0.0121076
-0.0194240  -0.0060050  -0.0180679
0.0192356  0.0087934  0.0007671
0.0197728  0.0006643  -0.0008513
0.0165616  -0.0102888  0.0147182
0.0207058  -0.0109203  0.0098694
-0.0053400  -0.0007506  0.0216653
-0.0111119  0.0002053  0.0240205
-0.0001036  -0.0003714  0.0257913
-0.0007815  -0.0090618  0.0265415
-0.0117548  -0.0093336  0.0166285
-0.0114807  -0.0108873  0.0113884
-0.0121582  -0.0031551  0.0022423
-0.0118836  -0.0112141  -0.0001677
-0.0023327  -0.0198803  -0.0067421
0.0008827  -0.0232240  -0.0095173
-0.0129260  -0.0105799  0.0136965
-0.0161727  -0.0124528  0.0106487
0.0027283  0.0118655  0.0147149
0.0016036  0.0126390  0.0068289
0.0015668  -0.0068809  0.0005121
-0.0060749  -0.0104111  -0.0016445
0.0044924  -0.0087040  0.0096257
0.0081263  -0.0142243  0.0104300
0.0125120  0.0032733  -0.0214880
0.0108013  0.0083128  -0.0247689
-0.0157781  0.0174847  0.0010253
-0.0131464  0.0250157  0.0011728
-0.0001515  0.0025424  -0.0220394
0.0059841  0.0068273  -0.0210535
0.0037743  0.0225774  0.0096060
0.0016985  0.0267934  0.0066005
0.0185974  0.0050418  -0.0018372
0.0164960  0.0023626  -0.0071468
0.0009790  -0.0031655  0.0266004
0.0043441  -0.0029014  0.0280380
0.0018973  -0.0015150  -0.0235427
0.0011208  -0.0015680  -0.0273307
-0.0173065  -0.0108650  -0.0038501
-0.0176008  -0.0161165  -0.0003450
-0.0161274  0.0118759  0.0033492
-0.0217943  0.0139149  0.0076605
0.0070479  -0.0216970  0.0006314
0.0128786  -0.0247951  0.0069132
0.0013620  0.0214707  -0.0004174
0.0061074  0.0250681  0.0015773
0.0144899  0.0096248  0.0046023
0.0189916  0.0189988  0.0066317
0.0003424  0.0120146  -0.0036180
0.0040207  0.0082150  -0.0045136
-0.0195443  0.0130087  0.0040962
-0.0234733  0.0141737  0.0023216
0.0026797  0.0036239  0.0204542
0.0070770  0.0086508  0.0256350
-0.0046044  -0.0043731  0.0210847
-0.0100114  -0.0047478  0.0248144
-0.0172732  0.0084549  0.0000629
-0.0179375  0.0049179  -0.0032778
0.0031378  0.0127818  0.0112960
0.0078225  0.0169187  0.0055032
-0.0034549  -0.0189851  -0.0023619
-0.0033835  -0.0271078  0.0004483
0.0109328  0.0078200  -0.0232987
0.0093160  0.0123123  -0.0232677
0.0195067  0.0019253  0.0118200
0.0261301  0.0009973  0.0062958
0.0205563  -0.0057265  -0.0043597
0.0268952  -0.0057386  -0.0079378
-0.0135230  -0.0110744  0.0164317
-0.0190698  -0.0122849  0.0144413
-0.0064366  0.0017784  -0.0205698
-0.0082841  0.0061321  -0.0231564
0.0159482  0.0161026  0.0047944
0.0145534  0.0220465  0.0029693
-0.0232791  0.0084249  0.0015255
-0.0257502  0.0080689  0.0055544
-0.0002406  0.0181853  -0.0001646
0.0063917  0.0179017  -0.0033236
0.0100767  -0.0024137  -0.0124122
0.0108346  0.0047021  -0.0108390
0.0156666  0.0123434  -0.0012279
0.0168498  0.0178817  -0.0022133
0.0175613  -0.0130655  0.0137870
0.0194998  -0.0158673  0.0111325
0.0120148  0.0103082  0.0129741
0.0215063  0.0128671  0.0134113
-0.0132431  -0.0034750  0.0041314
-0.0150732  -0.0067324  0.0104390
-0.0063841  -0.0081574  -0.0134734
-0.0121644  -0.0059034  -0.0146404
0.0062812  -0.0134039  0.0106434
0.0067280  -0.0191803  0.0123411
-0.0103018  0.0132103  -0.0105541
-0.0124056  0.0163759  -0.0134125
0.0058088  -0.0102191  0.0098947
0.0104452  -0.0104617  0.0095842
0.0093770  0.0088946  0.0007013
0.0092635  0.0114433  -0.0014218
-0.0046824  0.0076233  0.0258143
-0.0041368  0.0109382  0.0258059
0.0027438  -0.0223426  0.0054715
0.0055166  -0.0259098  0.0105850
-0.0162952  0.0142165  0.0025012
-0.0119641  0.0194389  0.0061056
0.0152782  0.0190866  0.0051351
0.0147507  0.0216650  0.0075754
-0.0178574  0.0002453  0.0124221
-0.0219564  0.0037174  0.0151791
0.0020682  0.0054481  -0.0221661
0.0025169  0.0092471  -0.0233367
0.0149377  0.0169910  -0.0079255
0.0125296  0.0219913  -0.0095424
0.0060412  -0.0041992  0.0196014
0.0103442  -0.0002050  0.0231932
-0.0131985  0.0081877  0.0042909
-0.0137350  0.0054285  0.0002936
0.0016496  -0.0119981  0.0023698
-0.0050350  -0.0136970  0.0008563
-0.0201267  -0.0006314  0.0122743
-0.0251281  0.0002390  0.0124751
-0.0049438  0.0136821  -0.0122040
-0.0001773  0.0127868  -0.0145538
-0.0192363  -0.0078989  0.0066121
-0.0192365  -0.0093847  0.0101120
-0.0024544  -0.0012560  0.0116153
-0.0058489  -0.0030607  0.0134293
0.0164146  -0.0141252  0.0000129
0.0207364  -0.0194649  0.0024186
0.0104395  -0.0035299  0.0164884
0.0112102  -0.0041695  0.0125981
-0.0016981  0.0034779  0.0263236
-0.0002488  0.0064085  0.0236460
-0.0204355  0.0019267  -0.0152289
-0.0184690  0.0047345  -0.0187654
0.0096140  -0.0012093  0.0209778
0.0138836  0.0019142  0.0204123
0.0016720  0.0125526  -0.0045563
0.0059962  0.0132638  -0.0037172
0.0161243  0.0132159  0.0124641
0.0185562  0.0184996  0.0107781
-0.0006771  -0.0036939  -0.0118314
-0.0026942  0.0007615  -0.0120388
0.0054245  -0.0196821  -0.0033678
0.0111742  -0.0173656  -0.0044801
-0.0044589  -0.0217083  0.0000704
-0.0071021  -0.0217486  0.0039162
0.0120542  -0.0065010  0.0177106
0.0128056  -0.0081942  0.0123003
-0.0046769  0.0207020  -0.0093707
-0.0055053  0.0219179  -0.0128278
-0.0014929  -0.0015802  0.0125052
0.0010913  0.0057382  0.0104963
0.0001286  -0.0219825  -0.0096463
0.0018643  -0.0226113  -0.0131497
0.0101847  -0.0221844  -0.0045541
0.0152009  -0.0223660  -0.0032954
0.0005007  -0.0041861  -0.0087683
0.0000038  -0.0085859  -0.0106463
0.0117991  0.0148370  0.0132318
0.0126077  0.0198217  0.0149724
-0.0100349  0.0000502  0.0229002
-0.0178487  0.0014870  0.0219062
0.0011327  -0.0050538  -0.0063841
-0.0036221  0.0004877  -0.0059645
0.0005854  -0.0223244  -0.0119422
-0.0009481  -0.0228527  -0.0172872
-0.0051296  -0.0211067  0.0102238
-0.0080991  -0.0238373  0.0131260
0.0035190  -0.0064493  -0.0056324
0.0062103  -0.0109040  -0.0057777
0.0027441  -0.0197168  0.0041252
0.0035875  -0.0191274  0.0079359
-0.0051041  0.0059763  -0.0003904
-0.0091410  0.0044403  -0.0080401
-0.0003840  -0.0013763  0.0176659
-0.0044300  0.0008131  0.0163827
0.0016581  -0.0021860  -0.0250804
0.0016860  -0.0062055  -0.0272214
0.0046506  -0.0203499  -0.0002183
0.0020314  -0.0243737  0.0007076
0.0114625  0.0001591  -0.0119291
0.0185136  0.0022402  -0.0119957
0.0013235  0.0195147  0.0011304
0.0052983  0.0209364  0.0034963
-0.0136718  -0.0035055  -0.0016399
-0.0131168  0.0007013  -0.0040152
-0.0156022  0.0091998  0.0153823
-0.0199004  0.0079084  0.0181216
-0.0034264  -0.0000329  -0.0182810
-0.0023178  0.0031544  -0.0174127

LINES  383  1149
2  0  52
2  52  324
2  324  325
2  324  292
2  292  293
2  292  53
2  52  202
2  202  6
2  6  246
2  246  247
2  246  38
2  38  212
2  212  252
2  252  253
2  252  213
2  212  100
2  100  224
2  224  225
2  224  101
2  100  74
2  74  124
2  124  125
2  124  75
2  74  39
2  38  86
2  86  98
2  98  154
2  154  155
2  154  258
2  258  99
2  258  259
2  98  12
2  12  48
2  48  142
2  142  143
2  142  290
2  290  49
2  290  291
2  48  240
2  240  24
2  24  274
2  274  275
2  274  72
2  72  92
2  92  93
2  92  73
2  72  304
2  304  25
2  304  305
2  24  196
2  196  60
2  60  13
2  60  134
2  134  61
2  134  135
2  196  226
2  226  197
2  226  227
2  240  266
2  266  241
2  266  298
2  298  267
2  298  299
2  12  278
2  278  352
2  352  353
2  352  7
2  278  332
2  332  279
2  332  333
2  86  87
2  6  18
2  18  14
2  14  368
2  368  369
2  368  168
2  168  169
2  168  4
2  4  28
2  28  76
2  76  77
2  76  174
2  174  360
2  360  361
2  360  29
2  174  175
2  28  178
2  178  190
2  190  191
2  190  40
2  40  16
2  16  310
2  310  311
2  310  42
2  42  66
2  66  208
2  208  346
2  346  358
2  358  359
2  358  347
2  346  209
2  208  67
2  66  254
2  254  138
2  138  43
2  138  160
2  160  188
2  188  189
2  188  139
2  160  186
2  186  161
2  186  187
2  254  338
2  338  255
2  338  339
2  42  88
2  88  46
2  46  372
2  372  373
2  372  236
2  236  237
2  236  17
2  46  336
2  336  136
2  136  116
2  116  47
2  116  117
2  136  348
2  348  137
2  348  349
2  336  337
2  88  364
2  364  294
2  294  89
2  294  295
2  364  365
2  16  214
2  214  8
2  8  356
2  356  357
2  356  90
2  90  91
2  90  350
2  350  122
2  122  334
2  334  335
2  334  152
2  152  153
2  152  30
2  30  144
2  144  382
2  382  383
2  382  264
2  264  265
2  264  145
2  144  34
2  34  230
2  230  370
2  370  371
2  370  231
2  230  35
2  34  222
2  222  31
2  222  302
2  302  223
2  302  303
2  30  148
2  148  9
2  148  149
2  122  282
2  282  180
2  180  123
2  180  181
2  282  283
2  350  351
2  8  362
2  362  20
2  20  80
2  80  166
2  166  167
2  166  81
2  80  5
2  20  272
2  272  104
2  104  21
2  104  218
2  218  105
2  218  256
2  256  219
2  256  257
2  272  374
2  374  273
2  374  375
2  362  363
2  214  215
2  40  120
2  120  172
2  172  173
2  172  44
2  44  54
2  54  260
2  260  261
2  260  55
2  54  41
2  44  320
2  320  45
2  320  321
2  120  121
2  178  216
2  216  179
2  216  288
2  288  284
2  284  217
2  284  285
2  288  289
2  4  344
2  344  318
2  318  10
2  10  84
2  84  140
2  140  300
2  300  301
2  300  312
2  312  141
2  312  313
2  140  85
2  84  2
2  2  36
2  36  280
2  280  281
2  280  70
2  70  158
2  158  159
2  158  71
2  70  316
2  316  37
2  316  317
2  36  206
2  206  96
2  96  378
2  378  379
2  378  22
2  22  118
2  118  119
2  118  194
2  194  164
2  164  23
2  164  326
2  326  165
2  326  327
2  194  195
2  22  232
2  232  82
2  82  3
2  82  83
2  232  233
2  96  97
2  206  207
2  2  156
2  156  32
2  32  26
2  26  110
2  110  286
2  286  287
2  286  111
2  110  114
2  114  94
2  94  95
2  94  314
2  314  112
2  112  102
2  102  1
2  102  103
2  112  113
2  314  315
2  114  115
2  26  106
2  106  150
2  150  151
2  150  27
2  106  342
2  342  107
2  342  343
2  32  62
2  62  162
2  162  163
2  162  270
2  270  56
2  56  376
2  376  377
2  376  33
2  56  238
2  238  192
2  192  57
2  192  193
2  238  239
2  270  271
2  62  242
2  242  330
2  330  331
2  330  130
2  130  63
2  130  131
2  242  243
2  156  366
2  366  157
2  366  367
2  10  78
2  78  308
2  308  309
2  308  58
2  58  234
2  234  244
2  244  245
2  244  235
2  234  296
2  296  184
2  184  220
2  220  221
2  220  185
2  184  11
2  296  297
2  58  132
2  132  250
2  250  251
2  250  126
2  126  59
2  126  268
2  268  127
2  268  269
2  132  133
2  78  176
2  176  79
2  176  380
2  380  177
2  380  381
2  318  319
2  344  345
2  14  108
2  108  306
2  306  328
2  328  329
2  328  307
2  306  68
2  68  340
2  340  341
2  340  182
2  182  183
2  182  198
2  198  276
2  276  277
2  276  15
2  198  199
2  68  322
2  322  69
2  322  323
2  108  146
2  146  128
2  128  109
2  128  129
2  146  147
2  18  170
2  170  248
2  248  249
2  248  64
2  64  50
2  50  19
2  50  204
2  204  262
2  262  263
2  262  51
2  204  210
2  210  205
2  210  211
2  64  65
2  170  200
2  200  171
2  200  354
2  354  201
2  354  355
2  202  228
2  228  203
2  228  229

CELL_DATA  383
scalars raio float
LOOKUP_TABLE default
0.9670254
0.2053278
0.1244251
0.1888034
0.1369448
0.1608545
0.9639298
0.9622828
0.5386482
0.1407571
0.5354251
0.3216248
0.1973164
0.1672322
0.1443107
0.2946742
0.2189819
0.1788424
0.1684595
0.2470947
0.2224244
0.1886711
0.1624599
0.1598257
0.4935519
0.4888528
0.2389102
0.1401644
0.2216057
0.1624850
0.1875117
0.4690399
0.4433799
0.2271959
0.1512604
0.2021975
0.1668591
0.1535582
0.4225297
0.3939738
0.3145709
0.1572475
0.3008866
0.2485007
0.2099613
0.1826128
0.2282701
0.1569109
0.2002599
0.3108009
0.2671853
0.1475760
0.2512461
0.1819242
0.2142793
0.2220515
0.1692252
0.1827414
0.2426330
0.1601236
0.2167177
0.1728817
0.1711273
0.2521201
0.1921229
0.1684947
0.1321505
0.2075018
0.1625954
0.1667410
0.1503900
0.9023715
0.8868692
0.8671589
0.1208614
0.8663756
0.1370100
0.8652319
0.6984943
0.2662422
0.1597903
0.2454795
0.2099843
0.1799317
0.1508626
0.1768774
0.6853548
0.6760960
0.1445982
0.6738841
0.6458644
0.4774087
0.1451823
0.4728906
0.3779779
0.2739256
0.2491900
0.2353816
0.2091943
0.1572227
0.1344869
0.1719097
0.3221940
0.2882630
0.1013105
0.2840299
0.2221383
0.1947919
0.1528399
0.2286374
0.1608832
0.1982161
0.2117411
0.1715053
0.1644652
0.3726513
0.3387415
0.2373163
0.1492811
0.2157212
0.1887008
0.1491726
0.2943526
0.2775447
0.2226131
0.1723502
0.1808229
0.2179115
0.1597090
0.1844363
0.1603661
0.2344110
0.2136943
0.1506961
0.1850446
0.1461561
0.5435679
0.5396946
0.4648488
0.1505793
0.4595212
0.1555076
0.4535064
0.4491779
0.4193339
0.1427293
0.4137479
0.1860257
0.4008127
0.3759772
0.2425062
0.1482490
0.2224210
0.1942329
0.1543288
0.3387907
0.2647851
0.2236197
0.1905013
0.1622195
0.1947125
0.2728894
0.1902678
0.2377194
0.1903552
0.1869705
0.2240250
0.1766876
0.1789159
0.2565746
0.2262154
0.1530058
0.1999519
0.1745071
0.1383008
0.3842875
0.3782105
0.2583793
0.2249572
0.1837709
0.1730016
0.1803413
0.3327745
0.2971773
0.1449011
0.2852194
0.1711306
0.2629976
0.1763265
0.2333644
0.2197107
0.1642017
0.1834995
0.1383820
0.1505006
0.3320403
0.3209546
0.1509738
0.3094092
0.2619153
0.2363527
0.2007565
0.1722666
0.1682639
0.2267190
0.1786776
0.1811987
0.1524853
0.2343556
0.1116157
0.2255928
0.2022382
0.1363334
0.1790235
0.1475038
0.6745586
0.6725498
0.6712772
0.6122139
0.2512184
0.2430958
0.1714299
0.2105043
0.1470167
0.1832165
0.1141825
0.5977758
0.4350984
0.2800090
0.1507351
0.2646180
0.2089423
0.1739658
0.1568234
0.2111014
0.1768004
0.1571500
0.3923864
0.3842494
0.3711879
0.1394120
0.3645133
0.3122191
0.1702600
0.2943374
0.2703295
0.1805005
0.2402911
0.1840044
0.1969918
0.1790964
0.2620622
0.2346397
0.1725183
0.1981809
0.1718964
0.1774860
0.1544045
0.5081828
0.4984251
0.4105591
0.3584099
0.2283181
0.1663649
0.1939656
0.3244004
0.3085623
0.1720314
0.2895960
0.2710902
0.2358172
0.1843391
0.1899142
0.1895341
0.1634262
0.1682173
0.2850563
0.2265747
0.1861996
0.1729795
0.2259230
0.1908669
0.1660455
0.3794155
0.3284851
0.1621525
0.3147477
0.2960849
0.1929816
0.1760535
0.1200522
0.2657574
0.2340697
0.1902312
0.1811074
0.1811581
0.1735157
0.2676560
0.2490944
0.1538054
0.2277756
0.1735625
0.1874735
0.1549321
0.1950059
0.1395764
0.1674638
0.4179814
0.3885312
0.1398736
0.3823919
0.3132064
0.2088869
0.1665200
0.1650609
0.2785404
0.2528286
0.2240988
0.1981854
0.1513956
0.1699318
0.1759711
0.2931395
0.2774475
0.1533721
0.2608520
0.1832840
0.2263200
0.1756133
0.1834753
0.1564940
0.2431393
0.1742662
0.2086333
0.1461367
0.1813121
0.1199001
0.1398298
0.3569568
0.3260525
0.1821501
0.1565798
0.1301497
0.3058810
0.2826194
0.1470368
0.2686764
0.1600470
0.2482293
0.2153061
0.1809218
0.1595144
0.1745098
0.1821687
0.1473650
0.1416988
0.2211786
0.1927392
0.1338481
0.1682404
0.1541100
0.3338888
0.3069480
0.1369099
0.2975861
0.2792793
0.1643405
0.2588532
0.2061708
0.1745111
0.1510883
0.2047280
0.1502501
0.1731252
0.1659545
0.2024917
0.1117587
0.1904411
0.1161570
0.1747849
0.1661077
0.1397715
0.1228181
